                               Psi4 1.3.2 release

  ==> Input File <==

--------------------------------------------------------------------------
molecule {
0 1
 N   -1.071604   -1.481032    0.180169
 C   -2.383369   -1.148511    0.393861
 C   -2.707581    0.381743    0.416772
 F   -3.699755    0.609542   -0.510903
 F   -3.207587    0.677759    1.664843
 C   -1.528248    1.372816    0.121837
 C   -0.180420    0.793324   -0.081939
 C    0.925435    1.636078   -0.326241
 C    2.211100    1.109422   -0.510144
 C    2.427198   -0.296285   -0.468606
 C    1.314690   -1.135453   -0.231022
 C    0.023663   -0.612639   -0.041863
 S    3.979905   -1.153948   -0.639227
 C    5.329973    0.058602   -0.752517
 O   -3.222831   -2.021133    0.562485
 O   -1.726761    2.583236    0.079862
 H    3.023952    1.810914   -0.683450
 H    0.754251    2.712720   -0.360616
 H   -0.925846   -2.481343    0.184103
 H    1.460274   -2.215995   -0.183429
 H    4.957100    1.081704   -0.803263
 H    5.968493   -0.048397    0.130043
 H    5.915997   -0.155182   -1.651718
}
set optking {
  frozen_dihedral = ("
    11 10 13 14
    9 10 13 14
    21 14 13 10
  ")
}
set {
  geom_maxiter 400
  g_convergence GAU_LOOSE
  dynamic_level 1
}
memory 16GB
set_num_threads(8)
psi4_io.set_default_path("/scratch/Psi4-ligand")
for _ in range(1):
  try:
    set opt_coordinates both
    optimize('wb97x-d/6-31+G*')
    break
  except OptimizationConvergenceError:
    break
  else:
    try:
      set opt_coordinates cartesian
      optimize('wb97x-d/6-31+G*')
      break
    except OptimizationConvergenceError:
      pass
clean()
--------------------------------------------------------------------------

    Molecular point group: c1
  Charge       = 0
  Multiplicity = 1
  Basis Set: 6-31+G*
    Blend: 6-31+G*
  Basis Set: (6-31+G* AUX)
    Blend: HEAVY-AUG-CC-PVDZ-JKFIT
  @DF-RKS Final Energy: -1188.11154884164762
    Total Energy =                      -1188.1115488416476182
    Molecular point group: c1
  Basis Set: 6-31+G*
    Blend: 6-31+G*
  Basis Set: (6-31+G* AUX)
    Blend: HEAVY-AUG-CC-PVDZ-JKFIT
  Basis Set: 6-31+G*
    Blend: 6-31+G*
  Basis Set: (6-31+G* AUX)
    Blend: HEAVY-AUG-CC-PVDZ-JKFIT
  @DF-RKS Final Energy: -1188.11576005042639
    Total Energy =                      -1188.1157600504266156
  Basis Set: 6-31+G*
    Blend: 6-31+G*
  Basis Set: (6-31+G* AUX)
    Blend: HEAVY-AUG-CC-PVDZ-JKFIT
  Basis Set: 6-31+G*
    Blend: 6-31+G*
  @DF-RKS Final Energy: -1188.11719160896109
    Total Energy =                      -1188.1171916089610932
  @DF-RKS Final Energy: -1188.11751630345702
    Total Energy =                      -1188.1175163034570232
  @DF-RKS Final Energy: -1188.11752983446422
    Total Energy =                      -1188.1175298344644489
  @DF-RKS Final Energy: -1188.11764160200028
    Total Energy =                      -1188.1176416020002762
  @DF-RKS Final Energy: -1188.11773446140819
    Total Energy =                      -1188.1177344614081903
  @DF-RKS Final Energy: -1188.11797277281357
    Total Energy =                      -1188.1179727728135731
  @DF-RKS Final Energy: -1188.11823742217757
    Total Energy =                      -1188.1182374221775717
  @DF-RKS Final Energy: -1188.11842036649182
    Total Energy =                      -1188.1184203664918186
  @DF-RKS Final Energy: -1188.11835452408559
    Total Energy =                      -1188.1183545240855892
  @DF-RKS Final Energy: -1188.11842054735712
    Total Energy =                      -1188.1184205473571183
  @DF-RKS Final Energy: -1188.11835371900293
    Total Energy =                      -1188.1183537190029256
  @DF-RKS Final Energy: -1188.11846124166937
    Total Energy =                      -1188.1184612416693653
  @DF-RKS Final Energy: -1188.11848254187930
    Total Energy =                      -1188.1184825418795299
  Basis Set: (6-31+G* AUX)
    Blend: HEAVY-AUG-CC-PVDZ-JKFIT
  Basis Set: 6-31+G*
    Blend: 6-31+G*
  Basis Set: (6-31+G* AUX)
    Blend: HEAVY-AUG-CC-PVDZ-JKFIT
  @DF-RKS Final Energy: -1188.11850586356559
    Total Energy =                      -1188.1185058635655878
  Basis Set: 6-31+G*
    Blend: 6-31+G*
  Basis Set: (6-31+G* AUX)
    Blend: HEAVY-AUG-CC-PVDZ-JKFIT
  Charge       = 0
  Multiplicity = 1
  Basis Set: 6-31+G*
    Blend: 6-31+G*
  Basis Set: (6-31+G* AUX)
    Blend: HEAVY-AUG-CC-PVDZ-JKFIT

    Orbital Energies [Eh]
    ---------------------

    Doubly Occupied:

       1A    -89.083357     2A    -24.873186     3A    -24.871125
       4A    -19.303271     5A    -19.293547     6A    -14.538743
       7A    -10.498427     8A    -10.452493     9A    -10.427590
      10A    -10.404068    11A    -10.388236    12A    -10.355405
      13A    -10.350201    14A    -10.346155    15A    -10.345398
      16A    -10.341001    17A     -8.101079    18A     -6.051822
      19A     -6.047211    20A     -6.041242    21A     -1.391612
      22A     -1.330331    23A     -1.193491    24A     -1.182501
      25A     -1.097875    26A     -1.004987    27A     -0.942889
      28A     -0.906693    29A     -0.888472    30A     -0.869089
      31A     -0.799682    32A     -0.764945    33A     -0.753731
      34A     -0.744855    35A     -0.697006    36A     -0.680875
      37A     -0.670158    38A     -0.645185    39A     -0.630860
      40A     -0.592896    41A     -0.587844    42A     -0.569762
      43A     -0.563031    44A     -0.558305    45A     -0.556686
      46A     -0.549089    47A     -0.547038    48A     -0.534563
      49A     -0.520218    50A     -0.514585    51A     -0.509967
      52A     -0.499011    53A     -0.491206    54A     -0.488988
      55A     -0.474786    56A     -0.442735    57A     -0.430630
      58A     -0.397969    59A     -0.394582    60A     -0.363860
      61A     -0.339569    62A     -0.316361

  @DF-RKS Final Energy: -1188.11850792876839

   => Energetics <=

    Nuclear Repulsion Energy =           1190.2115416261453902
    One-Electron Energy =               -3994.4166099886260781
    Two-Electron Energy =                1705.6573618075560717
    DFT Exchange-Correlation Energy =     -89.5572788983137684
    Empirical Dispersion Energy =          -0.0135224755298240
    VV10 Nonlocal Energy =                  0.0000000000000000
    Total Energy =                      -1188.1185079287681674

  Dipole Moment: [D]
     X:     8.0267      Y:    -0.9529      Z:    -0.5975     Total:     8.1051

    Molecular point group: c1
  Basis Set: 6-31+G*
    Blend: 6-31+G*
  Basis Set: (6-31+G* AUX)
    Blend: HEAVY-AUG-CC-PVDZ-JKFIT

  -Total Gradient:
     Atom            X                  Y                   Z
    ------   -----------------  -----------------  -----------------
       1       -0.000068602713    -0.000080992649     0.000244654384
       2       -0.000229275468     0.000256398188    -0.000903682532
       3        0.000717607645    -0.000580753361     0.000357587868
       4       -0.000431653505     0.000048116250     0.000005252454
       5       -0.000119399726     0.000115387957    -0.000384734359
       6        0.000396145645     0.000285714324     0.000912427318
       7       -0.000062236005    -0.000053435724    -0.000231532745
       8       -0.000124369816    -0.000006055843    -0.000143744255
       9        0.000147361005    -0.000103470334     0.001527941434
      10       -0.000084179358    -0.000042581905    -0.004643951726
      11        0.000222072691     0.000059114589     0.001627135971
      12       -0.000059974473     0.000084625891    -0.000029071049
      13        0.000056820087     0.000082709172     0.001713991698
      14        0.000277070759     0.000107001861    -0.000843018323
      15        0.000144109174    -0.000038849673     0.000388389979
      16       -0.000159218032    -0.000161513015    -0.000334628076
      17       -0.000024250035    -0.000031627638     0.000017667306
      18       -0.000000199750    -0.000063248870     0.000038593874
      19        0.000059493038     0.000067394219    -0.000005470224
      20        0.000105469553     0.000050829267     0.000019815791
      21        0.000027605762    -0.000114524001     0.000746454048
      22        0.000043709019     0.000009418129    -0.000005539401
      23        0.000057407382     0.000021636841     0.000038171297

  **** Optimization is complete! (in 5 steps) ****
    Final optimized geometry and variables:
    Molecular point group: c1

    Geometry (in Angstrom), charge = 0, multiplicity = 1:

    N           -1.069437274833    -1.471690990873    -0.114119530135
    C           -2.385068441424    -1.099927642042    -0.015187004649
    C           -2.597025937301     0.376948803185     0.386261134237
    F           -3.796625446433     0.789466259056    -0.032496704539
    F           -2.588660960256     0.394874460324     1.761193575044
    C           -1.486521684422     1.363949108897    -0.053602467121
    C           -0.140651922885     0.782688008471    -0.113475008745
    C            0.988506592404     1.602691998729    -0.177093829989
    C            2.265606783828     1.072930598351    -0.242474043440
    C            2.438242505172    -0.319140635186    -0.267260685856
    C            1.313802380519    -1.151560453651    -0.201167109765
    C            0.034821644586    -0.611870063428    -0.132879490865
    S            3.976430900484    -1.185261462960    -0.329318026001
    C            5.298970879477     0.057591110453    -0.220546043347
    O           -3.305562030883    -1.870111808250    -0.154301994290
    O           -1.757869496881     2.523703470483    -0.265296498603
    H            3.108220786917     1.751212368123    -0.283452963119
    H            0.839475444536     2.678114101879    -0.165392027513
    H           -0.917874255701    -2.457444259230    -0.290116046839
    H            1.442241972659    -2.231218090328    -0.205696818786
    H            4.913915932711     1.075734313879    -0.245407251052
    H            5.845594923322    -0.083871401167     0.713702868993
    H            5.974372340870    -0.080502741007    -1.066504615896

*** Psi4 exiting successfully. Buy a developer a beer!
