                               Psi4 1.3.2 release

  ==> Input File <==

--------------------------------------------------------------------------
molecule {
0 1
 N   -0.424050   -1.285151    0.936733
 C   -1.758123   -1.240972    1.244472
 C   -2.547246   -0.042194    0.665394
 F   -3.539134   -0.551555   -0.105652
 F   -3.112420    0.608856    1.710791
 C   -1.767335    0.998686   -0.184042
 C   -0.336794    0.756479   -0.388931
 C    0.427845    1.654121   -1.150107
 C    1.773693    1.447412   -1.358518
 C    2.401890    0.314430   -0.803040
 C    1.657917   -0.581722   -0.035612
 C    0.293362   -0.365520    0.166493
 S    4.129995    0.161948   -1.101725
 C    4.561215   -1.433257   -0.365699
 O   -2.303143   -2.081048    1.922372
 O   -2.378038    1.943436   -0.633066
 H    2.349305    2.150567   -1.952957
 H   -0.072305    2.519724   -1.573532
 H    0.068625   -2.080844    1.324489
 H    2.121861   -1.454656    0.411892
 H    4.432347   -1.429509    0.720091
 H    3.994872   -2.251547   -0.818574
 H    5.620839   -1.580268   -0.587116
}
memory 16GB
set_num_threads(8)
psi4_io.set_default_path("/scratch/Psi4-ligand")
set freeze_core True
E, wfn = energy('wb97x-d/6-311++g**',return_wfn=True)
oeprop(wfn,"WIBERG_LOWDIN_INDICES")
clean()
--------------------------------------------------------------------------

    Molecular point group: c1

    Geometry (in Angstrom), charge = 0, multiplicity = 1:

       Center              X                  Y                   Z               Mass
    ------------   -----------------  -----------------  -----------------  -----------------
         N           -0.424050050706    -1.285151067806     0.936733126895    14.003074004430
         C           -1.758123050706    -1.240972067806     1.244472126895    12.000000000000
         C           -2.547246050706    -0.042194067806     0.665394126895    12.000000000000
         F           -3.539134050706    -0.551555067806    -0.105651873105    18.998403162730
         F           -3.112420050706     0.608855932194     1.710791126895    18.998403162730
         C           -1.767335050706     0.998685932194    -0.184041873105    12.000000000000
         C           -0.336794050706     0.756478932194    -0.388930873105    12.000000000000
         C            0.427844949294     1.654120932194    -1.150106873105    12.000000000000
         C            1.773692949294     1.447411932194    -1.358517873105    12.000000000000
         C            2.401889949294     0.314429932194    -0.803039873105    12.000000000000
         C            1.657916949294    -0.581722067806    -0.035611873105    12.000000000000
         C            0.293361949294    -0.365520067806     0.166493126895    12.000000000000
         S            4.129994949294     0.161947932194    -1.101724873105    31.972071174400
         C            4.561214949294    -1.433257067806    -0.365698873105    12.000000000000
         O           -2.303143050706    -2.081048067806     1.922372126895    15.994914619570
         O           -2.378038050706     1.943435932194    -0.633065873105    15.994914619570
         H            2.349304949294     2.150566932194    -1.952956873105     1.007825032230
         H           -0.072305050706     2.519723932194    -1.573531873105     1.007825032230
         H            0.068624949294    -2.080844067806     1.324489126895     1.007825032230
         H            2.121860949294    -1.454656067806     0.411892126895     1.007825032230
         H            4.432346949294    -1.429509067806     0.720091126895     1.007825032230
         H            3.994871949294    -2.251547067806    -0.818573873105     1.007825032230
         H            5.620838949294    -1.580268067806    -0.587115873105     1.007825032230

  Charge       = 0
  Multiplicity = 1
  Basis Set: 6-311++G**
    Blend: 6-311++G**
  Basis Set: (6-311++G** AUX)
    Blend: AUG-CC-PVTZ-JKFIT

    Orbital Energies [Eh]
    ---------------------

    Doubly Occupied:

       1A    -89.055388     2A    -24.839677     3A    -24.839411
       4A    -19.268860     5A    -19.261935     6A    -14.518761
       7A    -10.485495     8A    -10.437830     9A    -10.410971
      10A    -10.392754    11A    -10.372523    12A    -10.344503
      13A    -10.333281    14A    -10.332639    15A    -10.331094
      16A    -10.322689    17A     -8.095963    18A     -6.045433
      19A     -6.040997    20A     -6.035129    21A     -1.389846
      22A     -1.328451    23A     -1.193824    24A     -1.179729
      25A     -1.100092    26A     -1.006902    27A     -0.946212
      28A     -0.905739    29A     -0.891980    30A     -0.867576
      31A     -0.800552    32A     -0.772102    33A     -0.754319
      34A     -0.741791    35A     -0.698104    36A     -0.683327
      37A     -0.670509    38A     -0.649489    39A     -0.629927
      40A     -0.593993    41A     -0.587257    42A     -0.570705
      43A     -0.565821    44A     -0.561888    45A     -0.556604
      46A     -0.552524    47A     -0.551572    48A     -0.534602
      49A     -0.526549    50A     -0.517028    51A     -0.508636
      52A     -0.503546    53A     -0.489302    54A     -0.482505
      55A     -0.470953    56A     -0.445621    57A     -0.439675
      58A     -0.396876    59A     -0.396102    60A     -0.364419
      61A     -0.346040    62A     -0.319122

  @DF-RKS Final Energy: -1188.33395193129513

   => Energetics <=

    Nuclear Repulsion Energy =           1191.3592034106438859
    One-Electron Energy =               -3997.5995656402346867
    Two-Electron Energy =                1707.6580293112260733
    DFT Exchange-Correlation Energy =     -89.7378482994579372
    Empirical Dispersion Energy =          -0.0137707134725849
    VV10 Nonlocal Energy =                  0.0000000000000000
    Total Energy =                      -1188.3339519312951325

  Dipole Moment: [D]
     X:     7.8694      Y:    -1.9778      Z:    -0.8449     Total:     8.1581

*** Psi4 exiting successfully. Buy a developer a beer!
