                               Psi4 1.3.2 release

  ==> Input File <==

--------------------------------------------------------------------------
molecule {
0 1
 N   -0.583211   -1.571569   -0.174819
 C   -1.946995   -1.594860   -0.036879
 C   -2.593276   -0.193970    0.047929
 F   -2.792610    0.201942   -1.252927
 F   -3.777837   -0.277909    0.650871
 C   -1.718352    0.910338    0.691172
 C   -0.276621    0.766435    0.446578
 C    0.593832    1.838847    0.672891
 C    1.951288    1.714004    0.444236
 C    2.473602    0.484657    0.007895
 C    1.620255   -0.598540   -0.201129
 C    0.248555   -0.459867    0.007909
 S    4.228333    0.379974   -0.202104
 C    4.398282   -0.746147   -1.614215
 O   -2.599779   -2.611289   -0.050588
 O   -2.237345    1.827417    1.284563
 H    2.613921    2.561290    0.587335
 H    0.170841    2.779590    1.011812
 H   -0.155604   -2.477372   -0.324181
 H    2.013503   -1.560889   -0.514234
 H    4.047253   -1.755501   -1.388317
 H    3.870132   -0.353804   -2.486433
 H    5.467603   -0.792143   -1.833469
}
memory 16GB
set_num_threads(8)
psi4_io.set_default_path("/scratch/Psi4-ligand")
set freeze_core True
E, wfn = energy('wb97x-d/6-311++g**',return_wfn=True)
oeprop(wfn,"WIBERG_LOWDIN_INDICES")
clean()
--------------------------------------------------------------------------

    Molecular point group: c1

    Geometry (in Angstrom), charge = 0, multiplicity = 1:

       Center              X                  Y                   Z               Mass
    ------------   -----------------  -----------------  -----------------  -----------------
         N           -0.583210943694    -1.571568857903    -0.174818909639    14.003074004430
         C           -1.946994943694    -1.594859857903    -0.036878909639    12.000000000000
         C           -2.593275943694    -0.193969857903     0.047929090361    12.000000000000
         F           -2.792609943694     0.201942142097    -1.252926909639    18.998403162730
         F           -3.777836943694    -0.277908857903     0.650871090361    18.998403162730
         C           -1.718351943694     0.910338142097     0.691172090361    12.000000000000
         C           -0.276620943694     0.766435142097     0.446578090361    12.000000000000
         C            0.593832056306     1.838847142097     0.672891090361    12.000000000000
         C            1.951288056306     1.714004142097     0.444236090361    12.000000000000
         C            2.473602056306     0.484657142097     0.007895090361    12.000000000000
         C            1.620255056306    -0.598539857903    -0.201128909639    12.000000000000
         C            0.248555056306    -0.459866857903     0.007909090361    12.000000000000
         S            4.228333056306     0.379974142097    -0.202103909639    31.972071174400
         C            4.398282056306    -0.746146857903    -1.614214909639    12.000000000000
         O           -2.599778943694    -2.611288857903    -0.050587909639    15.994914619570
         O           -2.237344943694     1.827417142097     1.284563090361    15.994914619570
         H            2.613921056306     2.561290142097     0.587335090361     1.007825032230
         H            0.170841056306     2.779590142097     1.011812090361     1.007825032230
         H           -0.155603943694    -2.477371857903    -0.324180909639     1.007825032230
         H            2.013503056306    -1.560888857903    -0.514233909639     1.007825032230
         H            4.047253056306    -1.755500857903    -1.388316909639     1.007825032230
         H            3.870132056306    -0.353803857903    -2.486432909639     1.007825032230
         H            5.467603056306    -0.792142857903    -1.833468909639     1.007825032230

  Charge       = 0
  Multiplicity = 1
  Basis Set: 6-311++G**
    Blend: 6-311++G**
  Basis Set: (6-311++G** AUX)
    Blend: AUG-CC-PVTZ-JKFIT

    Orbital Energies [Eh]
    ---------------------

    Doubly Occupied:

       1A    -89.048062     2A    -24.844079     3A    -24.842635
       4A    -19.274798     5A    -19.264885     6A    -14.517615
       7A    -10.486508     8A    -10.439028     9A    -10.414295
      10A    -10.391911    11A    -10.368138    12A    -10.339170
      13A    -10.334007    14A    -10.333460    15A    -10.333355
      16A    -10.322536    17A     -8.088649    18A     -6.038176
      19A     -6.033887    20A     -6.027565    21A     -1.394779
      22A     -1.332737    23A     -1.195712    24A     -1.184807
      25A     -1.100228    26A     -1.005673    27A     -0.943152
      28A     -0.906912    29A     -0.891003    30A     -0.867656
      31A     -0.796612    32A     -0.770742    33A     -0.756686
      34A     -0.741893    35A     -0.699495    36A     -0.682302
      37A     -0.674072    38A     -0.648542    39A     -0.631354
      40A     -0.594462    41A     -0.586003    42A     -0.573764
      43A     -0.566250    44A     -0.563651    45A     -0.558071
      46A     -0.551307    47A     -0.545591    48A     -0.536233
      49A     -0.527034    50A     -0.518686    51A     -0.514226
      52A     -0.502948    53A     -0.494283    54A     -0.482253
      55A     -0.472673    56A     -0.445793    57A     -0.431516
      58A     -0.398158    59A     -0.390910    60A     -0.367421
      61A     -0.344311    62A     -0.321440

  @DF-RKS Final Energy: -1188.33349176848287

   => Energetics <=

    Nuclear Repulsion Energy =           1195.3209300536411774
    One-Electron Energy =               -4005.5272097215838585
    Two-Electron Energy =                1711.6253890948994467
    DFT Exchange-Correlation Energy =     -89.7387430203247050
    Empirical Dispersion Energy =          -0.0138581751147063
    VV10 Nonlocal Energy =                  0.0000000000000000
    Total Energy =                      -1188.3334917684828724

  Dipole Moment: [D]
     X:     6.9149      Y:    -1.0958      Z:    -1.8091     Total:     7.2311

*** Psi4 exiting successfully. Buy a developer a beer!
