                               Psi4 1.3.2 release

  ==> Input File <==

--------------------------------------------------------------------------
molecule {
0 1
 N   -0.856828   -1.548236    0.184466
 C   -2.161217   -1.306487    0.525026
 C   -2.573331    0.182985    0.603838
 F   -3.685064    0.342262   -0.147320
 F   -2.892701    0.436544    1.900036
 C   -1.529388    1.247995    0.171809
 C   -0.177201    0.768602   -0.150677
 C    0.829477    1.686264   -0.479041
 C    2.107021    1.258951   -0.788270
 C    2.401250   -0.113560   -0.769007
 C    1.415224   -1.034739   -0.429422
 C    0.119606   -0.601000   -0.135017
 S    4.044997   -0.707460   -1.126901
 C    4.955632    0.027951    0.267297
 O   -2.951555   -2.188061    0.768720
 O   -1.871436    2.407785    0.138999
 H    2.873811    1.975488   -1.063901
 H    0.572405    2.740838   -0.491166
 H   -0.604525   -2.528935    0.156859
 H    1.658406   -2.093003   -0.393707
 H    4.965165    1.118787    0.212745
 H    4.532008   -0.296233    1.220389
 H    5.983145   -0.336543    0.190219
}
memory 16GB
set_num_threads(8)
psi4_io.set_default_path("/scratch/Psi4-ligand")
set freeze_core True
E, wfn = energy('wb97x-d/6-311++g**',return_wfn=True)
oeprop(wfn,"WIBERG_LOWDIN_INDICES")
clean()
--------------------------------------------------------------------------

    Molecular point group: c1

    Geometry (in Angstrom), charge = 0, multiplicity = 1:

       Center              X                  Y                   Z               Mass
    ------------   -----------------  -----------------  -----------------  -----------------
         N           -0.856827933531    -1.548235987149     0.184466098063    14.003074004430
         C           -2.161216933531    -1.306486987149     0.525026098063    12.000000000000
         C           -2.573330933531     0.182985012851     0.603838098063    12.000000000000
         F           -3.685063933531     0.342262012851    -0.147319901937    18.998403162730
         F           -2.892700933531     0.436544012851     1.900036098063    18.998403162730
         C           -1.529387933531     1.247995012851     0.171809098063    12.000000000000
         C           -0.177200933531     0.768602012851    -0.150676901937    12.000000000000
         C            0.829477066469     1.686264012851    -0.479040901937    12.000000000000
         C            2.107021066469     1.258951012851    -0.788269901937    12.000000000000
         C            2.401250066469    -0.113559987149    -0.769006901937    12.000000000000
         C            1.415224066469    -1.034738987149    -0.429421901937    12.000000000000
         C            0.119606066469    -0.600999987149    -0.135016901937    12.000000000000
         S            4.044997066469    -0.707459987149    -1.126900901937    31.972071174400
         C            4.955632066469     0.027951012851     0.267297098063    12.000000000000
         O           -2.951554933531    -2.188060987149     0.768720098063    15.994914619570
         O           -1.871435933531     2.407785012851     0.138999098063    15.994914619570
         H            2.873811066469     1.975488012851    -1.063900901937     1.007825032230
         H            0.572405066469     2.740838012851    -0.491165901937     1.007825032230
         H           -0.604524933531    -2.528934987149     0.156859098063     1.007825032230
         H            1.658406066469    -2.093002987149    -0.393706901937     1.007825032230
         H            4.965165066469     1.118787012851     0.212745098063     1.007825032230
         H            4.532008066469    -0.296232987149     1.220389098063     1.007825032230
         H            5.983145066469    -0.336542987149     0.190219098063     1.007825032230

  Charge       = 0
  Multiplicity = 1
  Basis Set: 6-311++G**
    Blend: 6-311++G**
  Basis Set: (6-311++G** AUX)
    Blend: AUG-CC-PVTZ-JKFIT

    Orbital Energies [Eh]
    ---------------------

    Doubly Occupied:

       1A    -89.040982     2A    -24.843981     3A    -24.842766
       4A    -19.276846     5A    -19.264068     6A    -14.520690
       7A    -10.489462     8A    -10.440146     9A    -10.417474
      10A    -10.394345    11A    -10.365937    12A    -10.339322
      13A    -10.336309    14A    -10.335269    15A    -10.333460
      16A    -10.326640    17A     -8.081547    18A     -6.031112
      19A     -6.027120    20A     -6.020121    21A     -1.393829
      22A     -1.332394    23A     -1.196120    24A     -1.187667
      25A     -1.102391    26A     -1.007098    27A     -0.940830
      28A     -0.906383    29A     -0.890652    30A     -0.867621
      31A     -0.794238    32A     -0.769905    33A     -0.757037
      34A     -0.744004    35A     -0.700625    36A     -0.686346
      37A     -0.674389    38A     -0.649353    39A     -0.632404
      40A     -0.594693    41A     -0.584246    42A     -0.573156
      43A     -0.565898    44A     -0.560650    45A     -0.559405
      46A     -0.555818    47A     -0.540081    48A     -0.538146
      49A     -0.526026    50A     -0.520375    51A     -0.512771
      52A     -0.501437    53A     -0.497787    54A     -0.481303
      55A     -0.478103    56A     -0.444506    57A     -0.426548
      58A     -0.399608    59A     -0.377966    60A     -0.369527
      61A     -0.344044    62A     -0.330292

  @DF-RKS Final Energy: -1188.33081899505214

   => Energetics <=

    Nuclear Repulsion Energy =           1189.2203112195772974
    One-Electron Energy =               -3993.3471278766091928
    Two-Electron Energy =                1705.5417279190648969
    DFT Exchange-Correlation Energy =     -89.7320400606580932
    Empirical Dispersion Energy =          -0.0136901964271054
    VV10 Nonlocal Energy =                  0.0000000000000000
    Total Energy =                      -1188.3308189950521410

  Dipole Moment: [D]
     X:     6.9327      Y:    -0.8197      Z:    -0.3660     Total:     6.9905

*** Psi4 exiting successfully. Buy a developer a beer!
