                               Psi4 1.3.2 release

  ==> Input File <==

--------------------------------------------------------------------------
molecule {
0 1
 N   -1.012426   -1.488635    0.151902
 C   -2.304741   -1.143746    0.448405
 C   -2.599666    0.375435    0.518743
 F   -3.451585    0.658441   -0.501431
 F   -3.240972    0.615076    1.684647
 C   -1.397700    1.354951    0.406105
 C   -0.094847    0.769408    0.080447
 C    1.020577    1.592649   -0.102980
 C    2.264314    1.071187   -0.408115
 C    2.419005   -0.318003   -0.542477
 C    1.314873   -1.154111   -0.341002
 C    0.066276   -0.621252   -0.040936
 S    3.921817   -1.169173   -0.907510
 C    5.238400    0.081553   -0.939362
 O   -3.177911   -1.960523    0.630026
 O   -1.601951    2.537395    0.572874
 H    3.095185    1.751609   -0.547306
 H    0.882327    2.664764    0.000541
 H   -0.847587   -2.485384    0.082421
 H    1.434679   -2.232079   -0.421497
 H    5.765445    0.004727   -1.892238
 H    4.845751    1.094704   -0.855474
 H    5.931014   -0.096170   -0.114637
}
memory 16GB
set_num_threads(8)
psi4_io.set_default_path("/scratch/Psi4-ligand")
set freeze_core True
E, wfn = energy('wb97x-d/6-311++g**',return_wfn=True)
oeprop(wfn,"WIBERG_LOWDIN_INDICES")
clean()
--------------------------------------------------------------------------

    Molecular point group: c1

    Geometry (in Angstrom), charge = 0, multiplicity = 1:

       Center              X                  Y                   Z               Mass
    ------------   -----------------  -----------------  -----------------  -----------------
         N           -1.012426094215    -1.488634904763     0.151901858772    14.003074004430
         C           -2.304741094215    -1.143745904763     0.448404858772    12.000000000000
         C           -2.599666094215     0.375435095237     0.518742858772    12.000000000000
         F           -3.451585094215     0.658441095237    -0.501431141228    18.998403162730
         F           -3.240972094215     0.615076095237     1.684646858772    18.998403162730
         C           -1.397700094215     1.354951095237     0.406104858772    12.000000000000
         C           -0.094847094215     0.769408095237     0.080446858772    12.000000000000
         C            1.020576905785     1.592649095237    -0.102980141228    12.000000000000
         C            2.264313905785     1.071187095237    -0.408115141228    12.000000000000
         C            2.419004905785    -0.318002904763    -0.542477141228    12.000000000000
         C            1.314872905785    -1.154110904763    -0.341002141228    12.000000000000
         C            0.066275905785    -0.621251904763    -0.040936141228    12.000000000000
         S            3.921816905785    -1.169172904763    -0.907510141228    31.972071174400
         C            5.238399905785     0.081553095237    -0.939362141228    12.000000000000
         O           -3.177911094215    -1.960522904763     0.630025858772    15.994914619570
         O           -1.601951094215     2.537395095237     0.572873858772    15.994914619570
         H            3.095184905785     1.751609095237    -0.547306141228     1.007825032230
         H            0.882326905785     2.664764095237     0.000540858772     1.007825032230
         H           -0.847587094215    -2.485383904763     0.082420858772     1.007825032230
         H            1.434678905785    -2.232078904763    -0.421497141228     1.007825032230
         H            5.765444905785     0.004727095237    -1.892238141228     1.007825032230
         H            4.845750905785     1.094704095237    -0.855474141228     1.007825032230
         H            5.931013905785    -0.096169904763    -0.114637141228     1.007825032230

  Charge       = 0
  Multiplicity = 1
  Basis Set: 6-311++G**
    Blend: 6-311++G**
  Basis Set: (6-311++G** AUX)
    Blend: AUG-CC-PVTZ-JKFIT

    Orbital Energies [Eh]
    ---------------------

    Doubly Occupied:

       1A    -89.054016     2A    -24.839739     3A    -24.837870
       4A    -19.269037     5A    -19.260370     6A    -14.516897
       7A    -10.484778     8A    -10.436548     9A    -10.411096
      10A    -10.391005    11A    -10.374426    12A    -10.341354
      13A    -10.334945    14A    -10.330939    15A    -10.330660
      16A    -10.325327    17A     -8.094617    18A     -6.044147
      19A     -6.039586    20A     -6.033781    21A     -1.389051
      22A     -1.327620    23A     -1.192073    24A     -1.179646
      25A     -1.098452    26A     -1.006764    27A     -0.944079
      28A     -0.906002    29A     -0.889234    30A     -0.868675
      31A     -0.801055    32A     -0.765738    33A     -0.753704
      34A     -0.746078    35A     -0.697540    36A     -0.684243
      37A     -0.669621    38A     -0.647089    39A     -0.631279
      40A     -0.593922    41A     -0.588909    42A     -0.569117
      43A     -0.563823    44A     -0.557756    45A     -0.556492
      46A     -0.553786    47A     -0.548387    48A     -0.534567
      49A     -0.518723    50A     -0.516021    51A     -0.508424
      52A     -0.499467    53A     -0.491729    54A     -0.488699
      55A     -0.475686    56A     -0.444346    57A     -0.432615
      58A     -0.399254    59A     -0.395296    60A     -0.363954
      61A     -0.342038    62A     -0.318681

  @DF-RKS Final Energy: -1188.32903901969098

   => Energetics <=

    Nuclear Repulsion Energy =           1186.6843128495895598
    One-Electron Energy =               -3988.3337799713749519
    Two-Electron Energy =                1703.0711301069143246
    DFT Exchange-Correlation Energy =     -89.7373120638336559
    Empirical Dispersion Energy =          -0.0133899409864576
    VV10 Nonlocal Energy =                  0.0000000000000000
    Total Energy =                      -1188.3290390196909811

  Dipole Moment: [D]
     X:     8.2589      Y:    -1.0834      Z:    -1.5958     Total:     8.4811

*** Psi4 exiting successfully. Buy a developer a beer!
