                               Psi4 1.3.2 release

  ==> Input File <==

--------------------------------------------------------------------------
molecule {
0 1
 N   -1.081234   -1.491156    0.086621
 C   -2.379983   -1.157980    0.369852
 C   -2.684919    0.371976    0.489219
 F   -3.592693    0.689365   -0.495797
 F   -3.283692    0.582280    1.711547
 C   -1.473433    1.359252    0.365191
 C   -0.145733    0.780153    0.057060
 C    0.979632    1.621600   -0.079298
 C    2.242163    1.097136   -0.384244
 C    2.415804   -0.303036   -0.563065
 C    1.293161   -1.145072   -0.395203
 C    0.023963   -0.624063   -0.087479
 S    3.939188   -1.140852   -0.942011
 C    5.266185    0.098601   -0.928343
 O   -3.227135   -2.029287    0.503213
 O   -1.636669    2.567562    0.506264
 H    3.075361    1.792470   -0.465531
 H    0.840130    2.694794    0.055456
 H   -0.951034   -2.490823    0.012185
 H    1.410424   -2.223651   -0.514110
 H    6.089608   -0.267904   -1.549476
 H    4.911951    1.037264   -1.361971
 H    5.606986    0.259311    0.098957
}
set optking {
  frozen_dihedral = ("
    11 10 13 14
    9 10 13 14
    21 14 13 10
  ")
}
set {
  geom_maxiter 400
  g_convergence GAU_LOOSE
  dynamic_level 1
}
memory 16GB
set_num_threads(8)
psi4_io.set_default_path("/scratch/Psi4-ligand")
for _ in range(1):
  try:
    set opt_coordinates both
    optimize('wb97x-d/6-31+G*')
    break
  except OptimizationConvergenceError:
    break
  else:
    try:
      set opt_coordinates cartesian
      optimize('wb97x-d/6-31+G*')
      break
    except OptimizationConvergenceError:
      pass
clean()
--------------------------------------------------------------------------

    Molecular point group: c1
  Charge       = 0
  Multiplicity = 1
  Basis Set: 6-31+G*
    Blend: 6-31+G*
  Basis Set: (6-31+G* AUX)
    Blend: HEAVY-AUG-CC-PVDZ-JKFIT
  @DF-RKS Final Energy: -1188.11431933931772
    Total Energy =                      -1188.1143193393177171
    Molecular point group: c1
  Basis Set: 6-31+G*
    Blend: 6-31+G*
  Basis Set: (6-31+G* AUX)
    Blend: HEAVY-AUG-CC-PVDZ-JKFIT
  Basis Set: 6-31+G*
    Blend: 6-31+G*
  Basis Set: (6-31+G* AUX)
    Blend: HEAVY-AUG-CC-PVDZ-JKFIT
  @DF-RKS Final Energy: -1188.12025414262507
    Total Energy =                      -1188.1202541426250718
  Basis Set: 6-31+G*
    Blend: 6-31+G*
  Basis Set: (6-31+G* AUX)
    Blend: HEAVY-AUG-CC-PVDZ-JKFIT
  Basis Set: 6-31+G*
    Blend: 6-31+G*
  @DF-RKS Final Energy: -1188.12054908067762
    Total Energy =                      -1188.1205490806778471
  @DF-RKS Final Energy: -1188.12069173222858
    Total Energy =                      -1188.1206917322285790
  @DF-RKS Final Energy: -1188.12056201831433
    Total Energy =                      -1188.1205620183141036
  @DF-RKS Final Energy: -1188.12069132405009
    Total Energy =                      -1188.1206913240500853
  @DF-RKS Final Energy: -1188.12059155304155
    Total Energy =                      -1188.1205915530415496
  @DF-RKS Final Energy: -1188.12070040755361
    Total Energy =                      -1188.1207004075536133
  @DF-RKS Final Energy: -1188.12076608886991
    Total Energy =                      -1188.1207660888699138
  @DF-RKS Final Energy: -1188.12087223652611
    Total Energy =                      -1188.1208722365261110
  @DF-RKS Final Energy: -1188.12098521191479
    Total Energy =                      -1188.1209852119147854
  @DF-RKS Final Energy: -1188.12111586956485
    Total Energy =                      -1188.1211158695650738
  @DF-RKS Final Energy: -1188.12124360931330
    Total Energy =                      -1188.1212436093135238
  @DF-RKS Final Energy: -1188.12057374018332
    Total Energy =                      -1188.1205737401830902
  @DF-RKS Final Energy: -1188.12116782669841
    Total Energy =                      -1188.1211678266981835
  Basis Set: (6-31+G* AUX)
    Blend: HEAVY-AUG-CC-PVDZ-JKFIT
  Basis Set: 6-31+G*
    Blend: 6-31+G*
  Basis Set: (6-31+G* AUX)
    Blend: HEAVY-AUG-CC-PVDZ-JKFIT
  @DF-RKS Final Energy: -1188.12124253784577
    Total Energy =                      -1188.1212425378457738
  Basis Set: 6-31+G*
    Blend: 6-31+G*
  Basis Set: (6-31+G* AUX)
    Blend: HEAVY-AUG-CC-PVDZ-JKFIT
  Charge       = 0
  Multiplicity = 1
  Basis Set: 6-31+G*
    Blend: 6-31+G*
  Basis Set: (6-31+G* AUX)
    Blend: HEAVY-AUG-CC-PVDZ-JKFIT

    Orbital Energies [Eh]
    ---------------------

    Doubly Occupied:

       1A    -89.084423     2A    -24.872240     3A    -24.870748
       4A    -19.301898     5A    -19.292542     6A    -14.539952
       7A    -10.498984     8A    -10.452498     9A    -10.427308
      10A    -10.405071    11A    -10.387307    12A    -10.355868
      13A    -10.350159    14A    -10.346936    15A    -10.346130
      16A    -10.340783    17A     -8.102139    18A     -6.052828
      19A     -6.048326    20A     -6.042321    21A     -1.390908
      22A     -1.329665    23A     -1.193086    24A     -1.181522
      25A     -1.098513    26A     -1.005761    27A     -0.944448
      28A     -0.906951    29A     -0.888403    30A     -0.868821
      31A     -0.799769    32A     -0.765133    33A     -0.753630
      34A     -0.745111    35A     -0.696703    36A     -0.682244
      37A     -0.669700    38A     -0.645989    39A     -0.630223
      40A     -0.592286    41A     -0.587268    42A     -0.568701
      43A     -0.562681    44A     -0.557378    45A     -0.557132
      46A     -0.552549    47A     -0.549927    48A     -0.534325
      49A     -0.518243    50A     -0.515132    51A     -0.508662
      52A     -0.498463    53A     -0.491733    54A     -0.487285
      55A     -0.474736    56A     -0.442811    57A     -0.432588
      58A     -0.397817    59A     -0.394577    60A     -0.363468
      61A     -0.339840    62A     -0.318433

  @DF-RKS Final Energy: -1188.12132016379746

   => Energetics <=

    Nuclear Repulsion Energy =           1189.3151868704401295
    One-Electron Energy =               -3992.6112742168434124
    Two-Electron Energy =                1704.7470411623612563
    DFT Exchange-Correlation Energy =     -89.5586688623609177
    Empirical Dispersion Energy =          -0.0136051173941935
    VV10 Nonlocal Energy =                  0.0000000000000000
    Total Energy =                      -1188.1213201637974635

  Dipole Moment: [D]
     X:     7.9737      Y:    -0.9610      Z:    -1.6565     Total:     8.2004

    Molecular point group: c1
  Basis Set: 6-31+G*
    Blend: 6-31+G*
  Basis Set: (6-31+G* AUX)
    Blend: HEAVY-AUG-CC-PVDZ-JKFIT

  -Total Gradient:
     Atom            X                  Y                   Z
    ------   -----------------  -----------------  -----------------
       1        0.000107267307    -0.000097779810     0.000177464444
       2        0.000323085796    -0.000310420188     0.000927898825
       3       -0.000167040814     0.000185102509     0.000086225761
       4       -0.000759635179     0.000331228060    -0.000353787253
       5        0.000518341103    -0.000454453953    -0.000069376054
       6        0.000357670622    -0.000030213281     0.000855288014
       7        0.000097169700    -0.000225603002    -0.000412008217
       8        0.000788484286     0.000082478596    -0.000193679767
       9        0.000134389238     0.000420471811     0.000480286715
      10       -0.001556599290    -0.000320763105    -0.005119899832
      11        0.000997480729     0.000114651477     0.002145536128
      12       -0.000285947860     0.000270851377     0.000040659597
      13        0.000784696482     0.000284223169     0.001622451438
      14        0.000784483641    -0.002737262469     0.003711417554
      15       -0.000144425456    -0.000351096253    -0.000614972076
      16        0.000084217150     0.000297353024    -0.000608484871
      17        0.000449156265    -0.000266525051    -0.000289832441
      18       -0.000130682410    -0.000002640340     0.000148013404
      19        0.000186653148     0.000023263608    -0.000148151271
      20        0.000076753931    -0.000072142976    -0.000068891280
      21       -0.001763124817     0.001944539466    -0.002579609487
      22       -0.000148899721     0.000270178894     0.000313453961
      23        0.000132225448    -0.000013672139    -0.000058021654

  **** Optimization is complete! (in 2 steps) ****
    Final optimized geometry and variables:
    Molecular point group: c1

    Geometry (in Angstrom), charge = 0, multiplicity = 1:

    N           -1.011167286364    -1.500920738036     0.183143555344
    C           -2.289786999271    -1.155343611439     0.532730294192
    C           -2.590861731113     0.363057629651     0.512566479302
    F           -3.231701265113     0.606541584492    -0.674268602996
    F           -3.435259082285     0.648097108565     1.513769172927
    C           -1.374667765613     1.326678075409     0.556073135042
    C           -0.085552408771     0.754423717199     0.154192627688
    C            1.030125124653     1.579934620573    -0.019735272301
    C            2.261226064628     1.063878901542    -0.380172068511
    C            2.400255527743    -0.319878907526    -0.578443280222
    C            1.300591307689    -1.159927424922    -0.377057612794
    C            0.063883979623    -0.631486721896    -0.022821608949
    S            3.900349131734    -1.128400327531    -1.031658721780
    C            5.146925857436     0.181728591768    -1.029555401805
    O           -3.147908658692    -1.969437747165     0.781907280675
    O           -1.553881424638     2.484926658173     0.859182746600
    H            3.102238197951     1.735412811467    -0.497428501326
    H            0.902386497722     2.646325537515     0.140186952096
    H           -0.842585041471    -2.498106528857     0.126324831903
    H            1.411680417710    -2.234268780590    -0.503731742437
    H            5.944168449339    -0.157995139544    -1.693730621355
    H            4.757962815185     1.105046708150    -1.463963655780
    H            5.539144951483     0.372690589512    -0.028872954317

*** Psi4 exiting successfully. Buy a developer a beer!
