                               Psi4 1.3.2 release

  ==> Input File <==

--------------------------------------------------------------------------
molecule {
0 1
 N   -0.921711   -1.519119    0.384900
 C   -2.189206   -1.195656    0.794760
 C   -2.576278    0.279226    0.545678
 F   -3.073142    0.322350   -0.736145
 F   -3.546883    0.640026    1.387684
 C   -1.409078    1.295873    0.576920
 C   -0.122656    0.766876    0.102481
 C    0.925026    1.633163   -0.222067
 C    2.145355    1.149241   -0.660531
 C    2.342810   -0.235312   -0.768298
 C    1.317462   -1.113329   -0.406078
 C    0.082684   -0.620326    0.006662
 S    3.865758   -0.962555   -1.303895
 C    5.109154    0.181651   -0.641066
 O   -2.967395   -2.000916    1.248322
 O   -1.609587    2.439845    0.914422
 H    2.929511    1.846086   -0.933237
 H    0.753140    2.701488   -0.133061
 H   -0.691579   -2.502973    0.454233
 H    1.490215   -2.185730   -0.441790
 H    5.051157    1.169559   -1.102224
 H    5.012626    0.269458    0.443568
 H    6.079117   -0.259900   -0.881386
}
memory 16GB
set_num_threads(8)
psi4_io.set_default_path("/scratch/Psi4-ligand")
set freeze_core True
E, wfn = energy('wb97x-d/6-311++g**',return_wfn=True)
oeprop(wfn,"WIBERG_LOWDIN_INDICES")
clean()
--------------------------------------------------------------------------

    Molecular point group: c1

    Geometry (in Angstrom), charge = 0, multiplicity = 1:

       Center              X                  Y                   Z               Mass
    ------------   -----------------  -----------------  -----------------  -----------------
         N           -0.921711042387    -1.519119085027     0.384899986277    14.003074004430
         C           -2.189206042387    -1.195656085027     0.794759986277    12.000000000000
         C           -2.576278042387     0.279225914973     0.545677986277    12.000000000000
         F           -3.073142042387     0.322349914973    -0.736145013723    18.998403162730
         F           -3.546883042387     0.640025914973     1.387683986277    18.998403162730
         C           -1.409078042387     1.295872914973     0.576919986277    12.000000000000
         C           -0.122656042387     0.766875914973     0.102480986277    12.000000000000
         C            0.925025957613     1.633162914973    -0.222067013723    12.000000000000
         C            2.145354957613     1.149240914973    -0.660531013723    12.000000000000
         C            2.342809957613    -0.235312085027    -0.768298013723    12.000000000000
         C            1.317461957613    -1.113329085027    -0.406078013723    12.000000000000
         C            0.082683957613    -0.620326085027     0.006661986277    12.000000000000
         S            3.865757957613    -0.962555085027    -1.303895013723    31.972071174400
         C            5.109153957613     0.181650914973    -0.641066013723    12.000000000000
         O           -2.967395042387    -2.000916085027     1.248321986277    15.994914619570
         O           -1.609587042387     2.439844914973     0.914421986277    15.994914619570
         H            2.929510957613     1.846085914973    -0.933237013723     1.007825032230
         H            0.753139957613     2.701487914973    -0.133061013723     1.007825032230
         H           -0.691579042387    -2.502973085027     0.454232986277     1.007825032230
         H            1.490214957613    -2.185730085027    -0.441790013723     1.007825032230
         H            5.051156957613     1.169558914973    -1.102224013723     1.007825032230
         H            5.012625957613     0.269457914973     0.443567986277     1.007825032230
         H            6.079116957613    -0.259900085027    -0.881386013723     1.007825032230

  Charge       = 0
  Multiplicity = 1
  Basis Set: 6-311++G**
    Blend: 6-311++G**
  Basis Set: (6-311++G** AUX)
    Blend: AUG-CC-PVTZ-JKFIT

    Orbital Energies [Eh]
    ---------------------

    Doubly Occupied:

       1A    -89.047602     2A    -24.843247     3A    -24.841728
       4A    -19.274793     5A    -19.263721     6A    -14.516565
       7A    -10.486212     8A    -10.438167     9A    -10.414381
      10A    -10.390839    11A    -10.368270    12A    -10.337724
      13A    -10.334945    14A    -10.333673    15A    -10.331336
      16A    -10.324586    17A     -8.088213    18A     -6.037735
      19A     -6.033444    20A     -6.027150    21A     -1.392978
      22A     -1.331321    23A     -1.194602    24A     -1.184841
      25A     -1.099198    26A     -1.005726    27A     -0.942561
      28A     -0.907582    29A     -0.888970    30A     -0.868417
      31A     -0.796739    32A     -0.766935    33A     -0.755117
      34A     -0.744695    35A     -0.698847    36A     -0.682792
      37A     -0.672843    38A     -0.646512    39A     -0.631509
      40A     -0.593706    41A     -0.586854    42A     -0.572543
      43A     -0.564795    44A     -0.561286    45A     -0.558453
      46A     -0.550303    47A     -0.545732    48A     -0.536800
      49A     -0.523679    50A     -0.516384    51A     -0.511395
      52A     -0.500660    53A     -0.497894    54A     -0.483105
      55A     -0.476660    56A     -0.445029    57A     -0.428928
      58A     -0.397769    59A     -0.391424    60A     -0.367349
      61A     -0.342275    62A     -0.322120

  @DF-RKS Final Energy: -1188.33358152519327

   => Energetics <=

    Nuclear Repulsion Energy =           1192.0520201612141591
    One-Electron Energy =               -3999.0555568984709680
    Two-Electron Energy =                1708.4210056016522685
    DFT Exchange-Correlation Energy =     -89.7372292073691682
    Empirical Dispersion Energy =          -0.0138211822197999
    VV10 Nonlocal Energy =                  0.0000000000000000
    Total Energy =                      -1188.3335815251932672

  Dipole Moment: [D]
     X:     7.4142      Y:    -0.8356      Z:    -1.1461     Total:     7.5486

*** Psi4 exiting successfully. Buy a developer a beer!
