                               Psi4 1.3.2 release

  ==> Input File <==

--------------------------------------------------------------------------
molecule {
0 1
 N   -0.811999   -1.418497   -0.045337
 C   -2.165035   -1.204031   -0.069159
 C   -2.627565    0.279190    0.115866
 F   -3.418123    0.604803   -0.963830
 F   -3.405910    0.329759    1.250436
 C   -1.509882    1.371753    0.247019
 C   -0.100665    0.916006    0.247226
 C    0.947423    1.854308    0.381220
 C    2.285897    1.442929    0.393322
 C    2.611167    0.069799    0.248300
 C    1.566364   -0.870130    0.114447
 C    0.220678   -0.463026    0.108263
 S    4.262085   -0.564491    0.272302
 C    4.804996   -0.391703   -1.446124
 O   -2.936810   -2.140090   -0.220774
 O   -1.807796    2.557612    0.355420
 H    3.062006    2.196459    0.524549
 H    0.687331    2.908509    0.481478
 H   -0.577470   -2.394859   -0.161663
 H    1.806625   -1.930133    0.021053
 H    4.204286   -1.049025   -2.082400
 H    4.681039    0.647690   -1.765672
 H    5.859390   -0.674887   -1.516903
}
set optking {
  frozen_dihedral = ("
    11 10 13 14
    9 10 13 14
    21 14 13 10
  ")
}
set {
  geom_maxiter 400
  g_convergence GAU_LOOSE
  dynamic_level 1
}
memory 16GB
set_num_threads(8)
psi4_io.set_default_path("/scratch/Psi4-ligand")
for _ in range(1):
  try:
    set opt_coordinates both
    optimize('wb97x-d/6-31+G*')
    break
  except OptimizationConvergenceError:
    break
  else:
    try:
      set opt_coordinates cartesian
      optimize('wb97x-d/6-31+G*')
      break
    except OptimizationConvergenceError:
      pass
clean()
--------------------------------------------------------------------------

    Molecular point group: c1
  Charge       = 0
  Multiplicity = 1
  Basis Set: 6-31+G*
    Blend: 6-31+G*
  Basis Set: (6-31+G* AUX)
    Blend: HEAVY-AUG-CC-PVDZ-JKFIT
  @DF-RKS Final Energy: -1188.11226828796839
    Total Energy =                      -1188.1122682879683907
    Molecular point group: c1
  Basis Set: 6-31+G*
    Blend: 6-31+G*
  Basis Set: (6-31+G* AUX)
    Blend: HEAVY-AUG-CC-PVDZ-JKFIT
  Basis Set: 6-31+G*
    Blend: 6-31+G*
  Basis Set: (6-31+G* AUX)
    Blend: HEAVY-AUG-CC-PVDZ-JKFIT
  @DF-RKS Final Energy: -1187.79747292484512
    Total Energy =                      -1187.7974729248451240
  Basis Set: 6-31+G*
    Blend: 6-31+G*
  Basis Set: (6-31+G* AUX)
    Blend: HEAVY-AUG-CC-PVDZ-JKFIT
  Basis Set: 6-31+G*
    Blend: 6-31+G*
  @DF-RKS Final Energy: -1187.97292984773298
    Total Energy =                      -1187.9729298477329849
  @DF-RKS Final Energy: -1188.09637110220638
    Total Energy =                      -1188.0963711022063762
  @DF-RKS Final Energy: -1188.11589049907116
    Total Energy =                      -1188.1158904990711562
  @DF-RKS Final Energy: -1188.11883437332904
    Total Energy =                      -1188.1188343733290367
  @DF-RKS Final Energy: -1188.11921239975504
    Total Energy =                      -1188.1192123997550425
  @DF-RKS Final Energy: -1188.11875208306265
    Total Energy =                      -1188.1187520830624180
  @DF-RKS Final Energy: -1188.11921213945880
    Total Energy =                      -1188.1192121394590231
  @DF-RKS Final Energy: -1188.11881562678172
    Total Energy =                      -1188.1188156267817249
  Basis Set: (6-31+G* AUX)
    Blend: HEAVY-AUG-CC-PVDZ-JKFIT
  Basis Set: 6-31+G*
    Blend: 6-31+G*
  Basis Set: (6-31+G* AUX)
    Blend: HEAVY-AUG-CC-PVDZ-JKFIT
  @DF-RKS Final Energy: -1188.11917806337237
    Total Energy =                      -1188.1191780633723738
  Basis Set: 6-31+G*
    Blend: 6-31+G*
  Basis Set: (6-31+G* AUX)
    Blend: HEAVY-AUG-CC-PVDZ-JKFIT
  Charge       = 0
  Multiplicity = 1
  Basis Set: 6-31+G*
    Blend: 6-31+G*
  Basis Set: (6-31+G* AUX)
    Blend: HEAVY-AUG-CC-PVDZ-JKFIT

    Orbital Energies [Eh]
    ---------------------

    Doubly Occupied:

       1A    -89.070831     2A    -24.875732     3A    -24.875599
       4A    -19.309939     5A    -19.295778     6A    -14.544982
       7A    -10.504399     8A    -10.456479     9A    -10.434525
      10A    -10.409496    11A    -10.379737    12A    -10.356222
      13A    -10.352527    14A    -10.352353    15A    -10.347009
      16A    -10.342909    17A     -8.087763    18A     -6.038570
      19A     -6.034639    20A     -6.027354    21A     -1.395230
      22A     -1.334126    23A     -1.196905    24A     -1.189514
      25A     -1.102947    26A     -1.006387    27A     -0.939729
      28A     -0.905683    29A     -0.890900    30A     -0.867101
      31A     -0.792622    32A     -0.770339    33A     -0.757446
      34A     -0.742449    35A     -0.700176    36A     -0.685486
      37A     -0.674328    38A     -0.649156    39A     -0.631810
      40A     -0.593486    41A     -0.582067    42A     -0.572382
      43A     -0.564554    44A     -0.560948    45A     -0.559439
      46A     -0.554280    47A     -0.539263    48A     -0.535571
      49A     -0.529077    50A     -0.520368    51A     -0.512328
      52A     -0.501995    53A     -0.496883    54A     -0.479554
      55A     -0.476215    56A     -0.443217    57A     -0.425021
      58A     -0.399079    59A     -0.370771    60A     -0.369298
      61A     -0.341053    62A     -0.334438

  @DF-RKS Final Energy: -1188.11924260606088

   => Energetics <=

    Nuclear Repulsion Energy =           1188.8316643321870743
    One-Electron Energy =               -3991.5881188764051331
    Two-Electron Energy =                1704.1980970682254792
    DFT Exchange-Correlation Energy =     -89.5473007637794183
    Empirical Dispersion Energy =          -0.0135843662885756
    VV10 Nonlocal Energy =                  0.0000000000000000
    Total Energy =                      -1188.1192426060608796

  Dipole Moment: [D]
     X:     5.7942      Y:     1.1509      Z:    -3.3227     Total:     6.7777

    Molecular point group: c1
  Basis Set: 6-31+G*
    Blend: 6-31+G*
  Basis Set: (6-31+G* AUX)
    Blend: HEAVY-AUG-CC-PVDZ-JKFIT

  -Total Gradient:
     Atom            X                  Y                   Z
    ------   -----------------  -----------------  -----------------
       1       -0.000009580882    -0.000130311219    -0.000002804748
       2        0.000207014225     0.000289590003    -0.000049339640
       3        0.000049643181    -0.000140579279     0.000024137752
       4       -0.000135974405     0.000048706690    -0.000107623794
       5       -0.000001202604     0.000018918299     0.000084962318
       6        0.000358220059    -0.000610573634    -0.000302766653
       7        0.000072009093     0.000130060932    -0.000008596281
       8       -0.000087849497     0.000022234134     0.000042352677
       9        0.000160330077    -0.000159640302     0.000337374837
      10        0.000020515561     0.000515377395    -0.000620734101
      11       -0.000071042230    -0.000110999180     0.000087325245
      12        0.000150037005     0.000010988319    -0.000077559657
      13        0.000145654275    -0.000214788971     0.000360869776
      14       -0.000449536341     0.000173520198    -0.000209634656
      15       -0.000068836676    -0.000237678421    -0.000044301144
      16       -0.000354527964     0.000654357479     0.000280118095
      17       -0.000007912283     0.000048999968    -0.000007124882
      18       -0.000006404774     0.000063780802    -0.000016482101
      19        0.000071302495    -0.000025253019    -0.000039165348
      20        0.000073201605    -0.000027380832    -0.000033370646
      21        0.000394932679    -0.000197673270    -0.000125522645
      22        0.000006158996     0.000048074395     0.000003113989
      23        0.000014325361     0.000014944942    -0.000006825325

  **** Optimization is complete! (in 3 steps) ****
    Final optimized geometry and variables:
    Molecular point group: c1

    Geometry (in Angstrom), charge = 0, multiplicity = 1:

    N           -0.506573465001    -1.640982599277    -0.299840265913
    C           -1.809139458737    -1.801171155212     0.091348825532
    C           -2.471431228869    -0.572509828881     0.759917381067
    F           -3.571034362761    -0.261458904957     0.032541642257
    F           -2.872131722516    -0.953566095072     1.997213627723
    C           -1.619659677275     0.718124883080     0.913699900985
    C           -0.229940275228     0.669935338453     0.431059699082
    C            0.593608128233     1.794476806660     0.563080397441
    C            1.904116296269     1.770167360292     0.118312663746
    C            2.408020958647     0.608187918419    -0.483322759829
    C            1.601847788223    -0.518860541453    -0.615497490004
    C            0.281932240212    -0.495345944080    -0.158445761514
    S            4.105439705235     0.543099075173    -1.040803949226
    C            3.900570972940     1.265281381307    -2.701595781587
    O           -2.421434936256    -2.831542770575    -0.066928446572
    O           -2.135685243761     1.689078337787     1.418162675096
    H            2.545572926676     2.637121667760     0.237695957640
    H            0.176762539721     2.681093847004     1.030906077729
    H           -0.093367788205    -2.459636015499    -0.730571154057
    H            2.007398394427    -1.417867900000    -1.071823241550
    H            3.293458760565     0.617917828536    -3.338497282456
    H            3.456023933654     2.261559726420    -2.643733847387
    H            4.902376794329     1.347976993148    -3.130816257707

*** Psi4 exiting successfully. Buy a developer a beer!
