                               Psi4 1.3.2 release

  ==> Input File <==

--------------------------------------------------------------------------
molecule {
0 1
 N   -0.979699   -1.513250    0.246896
 C   -2.296918   -1.182257    0.420547
 C   -2.612721    0.333938    0.430069
 F   -3.695076    0.538848   -0.344437
 F   -2.939733    0.653461    1.715552
 C   -1.482769    1.310162   -0.001473
 C   -0.135840    0.743829   -0.125869
 C    0.957442    1.577630   -0.387264
 C    2.237305    1.070479   -0.518078
 C    2.448032   -0.313936   -0.396487
 C    1.365528   -1.157848   -0.131958
 C    0.081462   -0.638679   -0.002471
 S    4.025656   -1.089385   -0.516658
 C    5.172074    0.299600   -0.668778
 O   -3.164146   -2.007178    0.592313
 O   -1.759934    2.475900   -0.176061
 H    3.060171    1.744493   -0.723380
 H    0.769807    2.642725   -0.485559
 H   -0.786453   -2.506868    0.283924
 H    1.528206   -2.227616   -0.024388
 H    5.042581    1.015822    0.146449
 H    6.174387   -0.129594   -0.606399
 H    5.066234    0.806405   -1.631309
}
memory 16GB
set_num_threads(8)
psi4_io.set_default_path("/scratch/Psi4-ligand")
set freeze_core True
E, wfn = energy('wb97x-d/6-311++g**',return_wfn=True)
oeprop(wfn,"WIBERG_LOWDIN_INDICES")
clean()
--------------------------------------------------------------------------

    Molecular point group: c1

    Geometry (in Angstrom), charge = 0, multiplicity = 1:

       Center              X                  Y                   Z               Mass
    ------------   -----------------  -----------------  -----------------  -----------------
         N           -0.979699043659    -1.513249997916     0.246896049029    14.003074004430
         C           -2.296918043659    -1.182256997916     0.420547049029    12.000000000000
         C           -2.612721043659     0.333938002084     0.430069049029    12.000000000000
         F           -3.695076043659     0.538848002084    -0.344436950971    18.998403162730
         F           -2.939733043659     0.653461002084     1.715552049029    18.998403162730
         C           -1.482769043659     1.310162002084    -0.001472950971    12.000000000000
         C           -0.135840043659     0.743829002084    -0.125868950971    12.000000000000
         C            0.957441956341     1.577630002084    -0.387263950971    12.000000000000
         C            2.237304956341     1.070479002084    -0.518077950971    12.000000000000
         C            2.448031956341    -0.313935997916    -0.396486950971    12.000000000000
         C            1.365527956341    -1.157847997916    -0.131957950971    12.000000000000
         C            0.081461956341    -0.638678997916    -0.002470950971    12.000000000000
         S            4.025655956341    -1.089384997916    -0.516657950971    31.972071174400
         C            5.172073956341     0.299600002084    -0.668777950971    12.000000000000
         O           -3.164146043659    -2.007177997916     0.592313049029    15.994914619570
         O           -1.759934043659     2.475900002084    -0.176060950971    15.994914619570
         H            3.060170956341     1.744493002084    -0.723379950971     1.007825032230
         H            0.769806956341     2.642725002084    -0.485558950971     1.007825032230
         H           -0.786453043659    -2.506867997916     0.283924049029     1.007825032230
         H            1.528205956341    -2.227615997916    -0.024387950971     1.007825032230
         H            5.042580956341     1.015822002084     0.146449049029     1.007825032230
         H            6.174386956341    -0.129593997916    -0.606398950971     1.007825032230
         H            5.066233956341     0.806405002084    -1.631308950971     1.007825032230

  Charge       = 0
  Multiplicity = 1
  Basis Set: 6-311++G**
    Blend: 6-311++G**
  Basis Set: (6-311++G** AUX)
    Blend: AUG-CC-PVTZ-JKFIT

    Orbital Energies [Eh]
    ---------------------

    Doubly Occupied:

       1A    -89.054047     2A    -24.839878     3A    -24.838803
       4A    -19.269765     5A    -19.260500     6A    -14.516761
       7A    -10.485087     8A    -10.436545     9A    -10.411609
      10A    -10.390840    11A    -10.371997    12A    -10.341608
      13A    -10.334807    14A    -10.331400    15A    -10.330793
      16A    -10.324536    17A     -8.094706    18A     -6.044156
      19A     -6.039756    20A     -6.033878    21A     -1.389593
      22A     -1.328129    23A     -1.192367    24A     -1.180518
      25A     -1.098542    26A     -1.006740    27A     -0.945363
      28A     -0.907008    29A     -0.888530    30A     -0.868619
      31A     -0.800074    32A     -0.765787    33A     -0.753685
      34A     -0.745787    35A     -0.697404    36A     -0.683828
      37A     -0.670066    38A     -0.646877    39A     -0.630306
      40A     -0.593272    41A     -0.588600    42A     -0.569562
      43A     -0.563977    44A     -0.558000    45A     -0.557121
      46A     -0.553896    47A     -0.549395    48A     -0.535381
      49A     -0.520103    50A     -0.516299    51A     -0.508639
      52A     -0.498932    53A     -0.490409    54A     -0.489489
      55A     -0.475757    56A     -0.443434    57A     -0.434721
      58A     -0.399271    59A     -0.395443    60A     -0.364383
      61A     -0.341717    62A     -0.320313

  @DF-RKS Final Energy: -1188.33426102465455

   => Energetics <=

    Nuclear Repulsion Energy =           1188.7843614481967052
    One-Electron Energy =               -3992.5266419838862930
    Two-Electron Energy =                1705.1604599422321371
    DFT Exchange-Correlation Energy =     -89.7386973764239002
    Empirical Dispersion Energy =          -0.0137430547732924
    VV10 Nonlocal Energy =                  0.0000000000000000
    Total Energy =                      -1188.3342610246547792

  Dipole Moment: [D]
     X:     8.1802      Y:    -0.9429      Z:    -1.1246     Total:     8.3108

*** Psi4 exiting successfully. Buy a developer a beer!
