                               Psi4 1.3.2 release

  ==> Input File <==

--------------------------------------------------------------------------
molecule {
0 1
 N   -0.778464   -1.563868    0.194377
 C   -2.076570   -1.379090    0.592150
 C   -2.439654    0.093494    0.881232
 F   -3.758400    0.265909    0.791369
 F   -2.058220    0.322337    2.184616
 C   -1.680199    1.146189    0.038073
 C   -0.294162    0.776695   -0.298048
 C    0.607506    1.746068   -0.744572
 C    1.910092    1.403808   -1.073459
 C    2.320516    0.069148   -0.971381
 C    1.428119   -0.908128   -0.531883
 C    0.119272   -0.562211   -0.197203
 S    4.005766   -0.386981   -1.355886
 C    4.716940   -0.308636    0.320502
 O   -2.854191   -2.285095    0.776251
 O   -2.205205    2.198633   -0.239956
 H    2.611071    2.159044   -1.413105
 H    0.262863    2.772609   -0.822566
 H   -0.498567   -2.531862    0.092174
 H    1.754631   -1.942696   -0.466997
 H    4.705611    0.714509    0.702848
 H    4.181635   -0.971106    1.004462
 H    5.752913   -0.646276    0.235127
}
memory 16GB
set_num_threads(8)
psi4_io.set_default_path("/scratch/Psi4-ligand")
set freeze_core True
E, wfn = energy('wb97x-d/6-311++g**',return_wfn=True)
oeprop(wfn,"WIBERG_LOWDIN_INDICES")
clean()
--------------------------------------------------------------------------

    Molecular point group: c1

    Geometry (in Angstrom), charge = 0, multiplicity = 1:

       Center              X                  Y                   Z               Mass
    ------------   -----------------  -----------------  -----------------  -----------------
         N           -0.778464007780    -1.563868068800     0.194377021299    14.003074004430
         C           -2.076570007780    -1.379090068800     0.592150021299    12.000000000000
         C           -2.439654007780     0.093493931200     0.881232021299    12.000000000000
         F           -3.758400007780     0.265908931200     0.791369021299    18.998403162730
         F           -2.058220007780     0.322336931200     2.184616021299    18.998403162730
         C           -1.680199007780     1.146188931200     0.038073021299    12.000000000000
         C           -0.294162007780     0.776694931200    -0.298047978701    12.000000000000
         C            0.607505992220     1.746067931200    -0.744571978701    12.000000000000
         C            1.910091992220     1.403807931200    -1.073458978701    12.000000000000
         C            2.320515992220     0.069147931200    -0.971380978701    12.000000000000
         C            1.428118992220    -0.908128068800    -0.531882978701    12.000000000000
         C            0.119271992220    -0.562211068800    -0.197202978701    12.000000000000
         S            4.005765992220    -0.386981068800    -1.355885978701    31.972071174400
         C            4.716939992220    -0.308636068800     0.320502021299    12.000000000000
         O           -2.854191007780    -2.285095068800     0.776251021299    15.994914619570
         O           -2.205205007780     2.198632931200    -0.239955978701    15.994914619570
         H            2.611070992220     2.159043931200    -1.413104978701     1.007825032230
         H            0.262862992220     2.772608931200    -0.822565978701     1.007825032230
         H           -0.498567007780    -2.531862068800     0.092174021299     1.007825032230
         H            1.754630992220    -1.942696068800    -0.466996978701     1.007825032230
         H            4.705610992220     0.714508931200     0.702848021299     1.007825032230
         H            4.181634992220    -0.971106068800     1.004462021299     1.007825032230
         H            5.752912992220    -0.646276068800     0.235127021299     1.007825032230

  Charge       = 0
  Multiplicity = 1
  Basis Set: 6-311++G**
    Blend: 6-311++G**
  Basis Set: (6-311++G** AUX)
    Blend: AUG-CC-PVTZ-JKFIT

    Orbital Energies [Eh]
    ---------------------

    Doubly Occupied:

       1A    -89.037420     2A    -24.846894     3A    -24.845618
       4A    -19.281001     5A    -19.266786     6A    -14.519551
       7A    -10.489985     8A    -10.441149     9A    -10.419618
      10A    -10.393358    11A    -10.363343    12A    -10.340598
      13A    -10.336462    14A    -10.335303    15A    -10.331156
      16A    -10.325657    17A     -8.077973    18A     -6.027549
      19A     -6.023658    20A     -6.016430    21A     -1.396846
      22A     -1.335000    23A     -1.197662    24A     -1.190755
      25A     -1.102274    26A     -1.006309    27A     -0.940207
      28A     -0.906983    29A     -0.891271    30A     -0.867035
      31A     -0.791783    32A     -0.770935    33A     -0.758453
      34A     -0.742276    35A     -0.701522    36A     -0.684334
      37A     -0.676488    38A     -0.648841    39A     -0.633080
      40A     -0.595688    41A     -0.585211    42A     -0.575972
      43A     -0.566330    44A     -0.561476    45A     -0.560578
      46A     -0.552376    47A     -0.541231    48A     -0.533545
      49A     -0.529148    50A     -0.521113    51A     -0.517127
      52A     -0.502901    53A     -0.498602    54A     -0.481499
      55A     -0.477382    56A     -0.443691    57A     -0.426152
      58A     -0.401016    59A     -0.373183    60A     -0.370086
      61A     -0.341203    62A     -0.335222

  @DF-RKS Final Energy: -1188.33160399668623

   => Energetics <=

    Nuclear Repulsion Energy =           1194.8081525226548365
    One-Electron Energy =               -4004.5071914523732630
    Two-Electron Energy =                1711.1121934190368847
    DFT Exchange-Correlation Energy =     -89.7309552248058964
    Empirical Dispersion Energy =          -0.0138032611986425
    VV10 Nonlocal Energy =                  0.0000000000000000
    Total Energy =                      -1188.3316039966862263

  Dipole Moment: [D]
     X:     6.1624      Y:    -0.8842      Z:    -0.4721     Total:     6.2434

*** Psi4 exiting successfully. Buy a developer a beer!
