                               Psi4 1.3.2 release

  ==> Input File <==

--------------------------------------------------------------------------
molecule {
0 1
 N   -1.063727   -1.475206    0.257177
 C   -2.380318   -1.133677    0.422272
 C   -2.706661    0.394382    0.341842
 F   -3.699311    0.559303   -0.598614
 F   -3.207136    0.772792    1.567311
 C   -1.527868    1.364451   -0.018843
 C   -0.174584    0.778002   -0.154982
 C    0.931748    1.605556   -0.446250
 C    2.223057    1.073573   -0.559739
 C    2.441897   -0.323216   -0.405151
 C    1.330123   -1.149611   -0.126417
 C    0.033538   -0.620346   -0.004742
 S    4.005880   -1.167347   -0.488767
 C    5.299767    0.092571   -0.669384
 O   -3.221442   -1.995785    0.632348
 O   -1.730661    2.566822   -0.159222
 H    3.042910    1.763808   -0.748986
 H    0.756809    2.675054   -0.569073
 H   -0.915643   -2.472262    0.333188
 H    1.480350   -2.222332    0.006036
 H    5.565533    0.479689    0.319009
 H    6.182231   -0.384793   -1.107245
 H    4.971536    0.896515   -1.332732
}
set optking {
  frozen_dihedral = ("
    11 10 13 14
    9 10 13 14
    21 14 13 10
  ")
}
set {
  geom_maxiter 400
  g_convergence GAU_LOOSE
  dynamic_level 1
}
memory 16GB
set_num_threads(8)
psi4_io.set_default_path("/scratch/Psi4-ligand")
for _ in range(1):
  try:
    set opt_coordinates both
    optimize('wb97x-d/6-31+G*')
    break
  except OptimizationConvergenceError:
    break
  else:
    try:
      set opt_coordinates cartesian
      optimize('wb97x-d/6-31+G*')
      break
    except OptimizationConvergenceError:
      pass
clean()
--------------------------------------------------------------------------

    Molecular point group: c1
  Charge       = 0
  Multiplicity = 1
  Basis Set: 6-31+G*
    Blend: 6-31+G*
  Basis Set: (6-31+G* AUX)
    Blend: HEAVY-AUG-CC-PVDZ-JKFIT
  @DF-RKS Final Energy: -1188.11438501529733
    Total Energy =                      -1188.1143850152973300
    Molecular point group: c1
  Basis Set: 6-31+G*
    Blend: 6-31+G*
  Basis Set: (6-31+G* AUX)
    Blend: HEAVY-AUG-CC-PVDZ-JKFIT
  Basis Set: 6-31+G*
    Blend: 6-31+G*
  Basis Set: (6-31+G* AUX)
    Blend: HEAVY-AUG-CC-PVDZ-JKFIT
  @DF-RKS Final Energy: -1188.11438432816772
    Total Energy =                      -1188.1143843281679437
  Basis Set: 6-31+G*
    Blend: 6-31+G*
  Basis Set: (6-31+G* AUX)
    Blend: HEAVY-AUG-CC-PVDZ-JKFIT
  Basis Set: 6-31+G*
    Blend: 6-31+G*
  @DF-RKS Final Energy: -1188.11438551041351
    Total Energy =                      -1188.1143855104137401
  @DF-RKS Final Energy: -1188.11737769739784
    Total Energy =                      -1188.1173776973978420
  @DF-RKS Final Energy: -1188.11900464051655
    Total Energy =                      -1188.1190046405163230
  @DF-RKS Final Energy: -1188.11984420935937
    Total Energy =                      -1188.1198442093593712
  @DF-RKS Final Energy: -1188.12031635924131
    Total Energy =                      -1188.1203163592413148
  @DF-RKS Final Energy: -1188.12056412463767
    Total Energy =                      -1188.1205641246378946
  @DF-RKS Final Energy: -1188.12065538444790
    Total Energy =                      -1188.1206553844479004
  @DF-RKS Final Energy: -1188.12072573578212
    Total Energy =                      -1188.1207257357823437
  @DF-RKS Final Energy: -1188.12077451835989
    Total Energy =                      -1188.1207745183598945
  @DF-RKS Final Energy: -1188.12082065098480
    Total Energy =                      -1188.1208206509850243
  @DF-RKS Final Energy: -1188.12086034093932
    Total Energy =                      -1188.1208603409393163
  @DF-RKS Final Energy: -1188.12088838870204
    Total Energy =                      -1188.1208883887018146
  @DF-RKS Final Energy: -1188.12090974835746
    Total Energy =                      -1188.1209097483574624
  Basis Set: (6-31+G* AUX)
    Blend: HEAVY-AUG-CC-PVDZ-JKFIT
  Basis Set: 6-31+G*
    Blend: 6-31+G*
  Basis Set: (6-31+G* AUX)
    Blend: HEAVY-AUG-CC-PVDZ-JKFIT
  @DF-RKS Final Energy: -1188.12092487723407
    Total Energy =                      -1188.1209248772340743
  Basis Set: 6-31+G*
    Blend: 6-31+G*
  Basis Set: (6-31+G* AUX)
    Blend: HEAVY-AUG-CC-PVDZ-JKFIT
  Charge       = 0
  Multiplicity = 1
  Basis Set: 6-31+G*
    Blend: 6-31+G*
  Basis Set: (6-31+G* AUX)
    Blend: HEAVY-AUG-CC-PVDZ-JKFIT

    Orbital Energies [Eh]
    ---------------------

    Doubly Occupied:

       1A    -89.084925     2A    -24.871046     3A    -24.870221
       4A    -19.300938     5A    -19.291583     6A    -14.540421
       7A    -10.498751     8A    -10.452109     9A    -10.426876
      10A    -10.405600    11A    -10.387771    12A    -10.356530
      13A    -10.350292    14A    -10.347420    15A    -10.346442
      16A    -10.341029    17A     -8.102600    18A     -6.053302
      19A     -6.048780    20A     -6.042783    21A     -1.390038
      22A     -1.328990    23A     -1.192645    24A     -1.180923
      25A     -1.098438    26A     -1.005892    27A     -0.944394
      28A     -0.906516    29A     -0.888513    30A     -0.868808
      31A     -0.800189    32A     -0.765189    33A     -0.753324
      34A     -0.745276    35A     -0.696577    36A     -0.683000
      37A     -0.669236    38A     -0.646179    39A     -0.629923
      40A     -0.592024    41A     -0.587118    42A     -0.567993
      43A     -0.562439    44A     -0.557425    45A     -0.555845
      46A     -0.552979    47A     -0.550264    48A     -0.534290
      49A     -0.518530    50A     -0.515987    51A     -0.507368
      52A     -0.498192    53A     -0.490236    54A     -0.487704
      55A     -0.474690    56A     -0.442405    57A     -0.433168
      58A     -0.397838    59A     -0.394135    60A     -0.363049
      61A     -0.340025    62A     -0.318705

  @DF-RKS Final Energy: -1188.12093472841707

   => Energetics <=

    Nuclear Repulsion Energy =           1187.7011678963376653
    One-Electron Energy =               -3989.3938272039608819
    Two-Electron Energy =                1703.1427171131047089
    DFT Exchange-Correlation Energy =     -89.5574472059812763
    Empirical Dispersion Energy =          -0.0135453279172398
    VV10 Nonlocal Energy =                  0.0000000000000000
    Total Energy =                      -1188.1209347284170690

  Dipole Moment: [D]
     X:     8.2410      Y:    -1.0789      Z:    -0.9576     Total:     8.3663

    Molecular point group: c1
  Basis Set: 6-31+G*
    Blend: 6-31+G*
  Basis Set: (6-31+G* AUX)
    Blend: HEAVY-AUG-CC-PVDZ-JKFIT

  -Total Gradient:
     Atom            X                  Y                   Z
    ------   -----------------  -----------------  -----------------
       1       -0.000080505113    -0.000080608434     0.000009329153
       2       -0.000113143449    -0.000222647613     0.000088214902
       3        0.000195344357     0.000037784208     0.000106840221
       4        0.000116184628    -0.000057551339    -0.000296168802
       5       -0.000129842196    -0.000012036818    -0.000089491377
       6       -0.000307001082     0.000172024807     0.000056001761
       7        0.000097876159     0.000016099798    -0.000070125034
       8        0.000098028353     0.000006686383    -0.000033111799
       9        0.000061517908    -0.000173184183     0.000338279741
      10       -0.000318946831    -0.000623184516    -0.004846349621
      11        0.000168678079     0.000171303433     0.001768429337
      12        0.000276016257     0.000123829606    -0.000098962857
      13        0.001051483848    -0.000331822669     0.002152347389
      14       -0.003362167507     0.003048127653     0.000329355552
      15        0.000054623383     0.000159468773     0.000102769899
      16       -0.000013557523    -0.000091679082     0.000161888531
      17        0.000028479179    -0.000014509998    -0.000177606437
      18        0.000172872063     0.000100887723    -0.000019220361
      19        0.000100438458    -0.000042106567     0.000005970130
      20        0.000104888285    -0.000155428987    -0.000022331293
      21        0.002789415997    -0.002545090587     0.000315222132
      22       -0.000032891078     0.000068532066    -0.000079924064
      23       -0.000142823548    -0.000019916368     0.000145182350

  **** Optimization is complete! (in 15 steps) ****
    Final optimized geometry and variables:
    Molecular point group: c1

    Geometry (in Angstrom), charge = 0, multiplicity = 1:

    N           -1.004725672355    -1.480651768682     0.299578271524
    C           -2.319080905112    -1.122852658436     0.442739437591
    C           -2.619988795994     0.393100167999     0.363750596305
    F           -3.618380071362     0.567753027261    -0.528851569743
    F           -3.072989783893     0.767864828252     1.590345740894
    C           -1.452358902563     1.346615567936    -0.008313584039
    C           -0.116773935556     0.751543473918    -0.115026435740
    C            0.995170112843     1.559489609659    -0.373818327762
    C            2.266358716335     1.026164749483    -0.485453087341
    C            2.451184143001    -0.359031638665    -0.348879774080
    C            1.349891150853    -1.177533272067    -0.073234367630
    C            0.075010948460    -0.632634140621     0.036164201123
    S            4.004169764771    -1.186610120383    -0.459892805165
    C            5.227577659821     0.136766319819    -0.632560898789
    O           -3.201354413152    -1.925963744085     0.638286567187
    O           -1.700040133215     2.520701133014    -0.170880628916
    H            3.101341193936     1.689932891551    -0.671358535272
    H            0.835184880527     2.628139871657    -0.481178161189
    H           -0.829178271912    -2.475398224023     0.376379478665
    H            1.491335263716    -2.248558675722     0.052130181691
    H            5.515084973104     0.548008972264     0.337531337434
    H            6.106483981089    -0.342044074060    -1.071931323188
    H            4.900968183206     0.919430163284    -1.318361137683

*** Psi4 exiting successfully. Buy a developer a beer!
