                               Psi4 1.3.2 release

  ==> Input File <==

--------------------------------------------------------------------------
molecule {
0 1
 N   -0.709744   -1.398506    0.243066
 C   -1.984032   -1.204463    0.707704
 C   -2.497585    0.273697    0.704966
 F   -3.652094    0.309145   -0.044800
 F   -2.816346    0.602697    2.003497
 C   -1.526170    1.373755    0.152610
 C   -0.184181    0.940509   -0.299516
 C    0.736987    1.891381   -0.793208
 C    2.009894    1.502592   -1.228291
 C    2.393741    0.137629   -1.182380
 C    1.478285   -0.813318   -0.680943
 C    0.198446   -0.428720   -0.244545
 S    3.985122   -0.458564   -1.675215
 C    4.927210   -0.498585   -0.128883
 O   -2.651244   -2.152342    1.096556
 O   -1.876438    2.549348    0.109526
 H    2.691484    2.268954   -1.596327
 H    0.431279    2.937677   -0.826783
 H   -0.436911   -2.371519    0.270395
 H    1.768122   -1.863817   -0.632666
 H    5.058420    0.523251    0.240339
 H    4.388273   -1.093470    0.614978
 H    5.905517   -0.949394   -0.321044
}
set optking {
  frozen_dihedral = ("
    11 10 13 14
    9 10 13 14
    21 14 13 10
  ")
}
set {
  geom_maxiter 400
  g_convergence GAU_LOOSE
  dynamic_level 1
}
memory 16GB
set_num_threads(8)
psi4_io.set_default_path("/scratch/Psi4-ligand")
for _ in range(1):
  try:
    set opt_coordinates both
    optimize('wb97x-d/6-31+G*')
    break
  except OptimizationConvergenceError:
    break
  else:
    try:
      set opt_coordinates cartesian
      optimize('wb97x-d/6-31+G*')
      break
    except OptimizationConvergenceError:
      pass
clean()
--------------------------------------------------------------------------

    Molecular point group: c1
  Charge       = 0
  Multiplicity = 1
  Basis Set: 6-31+G*
    Blend: 6-31+G*
  Basis Set: (6-31+G* AUX)
    Blend: HEAVY-AUG-CC-PVDZ-JKFIT
  @DF-RKS Final Energy: -1188.11194355390148
    Total Energy =                      -1188.1119435539014830
    Molecular point group: c1
  Basis Set: 6-31+G*
    Blend: 6-31+G*
  Basis Set: (6-31+G* AUX)
    Blend: HEAVY-AUG-CC-PVDZ-JKFIT
  Basis Set: 6-31+G*
    Blend: 6-31+G*
  Basis Set: (6-31+G* AUX)
    Blend: HEAVY-AUG-CC-PVDZ-JKFIT
  @DF-RKS Final Energy: -1188.11869505676054
    Total Energy =                      -1188.1186950567603162
  Basis Set: 6-31+G*
    Blend: 6-31+G*
  Basis Set: (6-31+G* AUX)
    Blend: HEAVY-AUG-CC-PVDZ-JKFIT
  Basis Set: 6-31+G*
    Blend: 6-31+G*
  @DF-RKS Final Energy: -1188.11901827347674
    Total Energy =                      -1188.1190182734767404
  @DF-RKS Final Energy: -1188.11871621595628
    Total Energy =                      -1188.1187162159562831
  @DF-RKS Final Energy: -1188.11905329492447
    Total Energy =                      -1188.1190532949244698
  @DF-RKS Final Energy: -1188.11907480045420
    Total Energy =                      -1188.1190748004542002
  @DF-RKS Final Energy: -1188.11927677696281
    Total Energy =                      -1188.1192767769625789
  @DF-RKS Final Energy: -1188.11925585256267
    Total Energy =                      -1188.1192558525626737
  @DF-RKS Final Energy: -1188.11927397065915
    Total Energy =                      -1188.1192739706589236
  @DF-RKS Final Energy: -1188.11943399583606
    Total Energy =                      -1188.1194339958360615
  @DF-RKS Final Energy: -1188.11962837759165
    Total Energy =                      -1188.1196283775916527
  @DF-RKS Final Energy: -1188.11981947799336
    Total Energy =                      -1188.1198194779935875
  @DF-RKS Final Energy: -1188.12003343937386
    Total Energy =                      -1188.1200334393736284
  @DF-RKS Final Energy: -1188.12019922647528
    Total Energy =                      -1188.1201992264752789
  Basis Set: (6-31+G* AUX)
    Blend: HEAVY-AUG-CC-PVDZ-JKFIT
  Basis Set: 6-31+G*
    Blend: 6-31+G*
  Basis Set: (6-31+G* AUX)
    Blend: HEAVY-AUG-CC-PVDZ-JKFIT
  @DF-RKS Final Energy: -1188.12031329215415
    Total Energy =                      -1188.1203132921539236
  Basis Set: 6-31+G*
    Blend: 6-31+G*
  Basis Set: (6-31+G* AUX)
    Blend: HEAVY-AUG-CC-PVDZ-JKFIT
  Charge       = 0
  Multiplicity = 1
  Basis Set: 6-31+G*
    Blend: 6-31+G*
  Basis Set: (6-31+G* AUX)
    Blend: HEAVY-AUG-CC-PVDZ-JKFIT

    Orbital Energies [Eh]
    ---------------------

    Doubly Occupied:

       1A    -89.069538     2A    -24.878574     3A    -24.877164
       4A    -19.312696     5A    -19.298055     6A    -14.543229
       7A    -10.504140     8A    -10.456991     9A    -10.435368
      10A    -10.407910    11A    -10.378363    12A    -10.355637
      13A    -10.352129    14A    -10.351563    15A    -10.346047
      16A    -10.341943    17A     -8.086543    18A     -6.037341
      19A     -6.033409    20A     -6.026139    21A     -1.397611
      22A     -1.336080    23A     -1.198034    24A     -1.191416
      25A     -1.102326    26A     -1.005570    27A     -0.939806
      28A     -0.906767    29A     -0.890962    30A     -0.866868
      31A     -0.791449    32A     -0.770208    33A     -0.758249
      34A     -0.741632    35A     -0.700622    36A     -0.683176
      37A     -0.675752    38A     -0.648177    39A     -0.632373
      40A     -0.594110    41A     -0.583770    42A     -0.574605
      43A     -0.564705    44A     -0.560972    45A     -0.559702
      46A     -0.551499    47A     -0.540492    48A     -0.533965
      49A     -0.528718    50A     -0.520689    51A     -0.516196
      52A     -0.502083    53A     -0.497641    54A     -0.480531
      55A     -0.476512    56A     -0.442506    57A     -0.424857
      58A     -0.399780    59A     -0.371887    60A     -0.368840
      61A     -0.339432    62A     -0.334430

  @DF-RKS Final Energy: -1188.12034069315973

   => Energetics <=

    Nuclear Repulsion Energy =           1194.8081435535348191
    One-Electron Energy =               -4003.5267309723449216
    Two-Electron Energy =                1710.1614473952297431
    DFT Exchange-Correlation Energy =     -89.5493974090649516
    Empirical Dispersion Energy =          -0.0138032605146230
    VV10 Nonlocal Energy =                  0.0000000000000000
    Total Energy =                      -1188.1203406931597328

  Dipole Moment: [D]
     X:     6.1544      Y:    -0.8551      Z:    -0.4076     Total:     6.2269

    Molecular point group: c1
  Basis Set: 6-31+G*
    Blend: 6-31+G*
  Basis Set: (6-31+G* AUX)
    Blend: HEAVY-AUG-CC-PVDZ-JKFIT

  -Total Gradient:
     Atom            X                  Y                   Z
    ------   -----------------  -----------------  -----------------
       1       -0.000296903124    -0.000021136305     0.000056695952
       2        0.000019588670     0.000368578290    -0.000881184571
       3       -0.000167642244    -0.000683507675    -0.000541947015
       4        0.000348172805     0.000032718123     0.000240281653
       5        0.000013816028     0.000091346300     0.000272909222
       6        0.000742292246    -0.001651732613    -0.000233762774
       7       -0.000389178757     0.000823204319     0.000088111837
       8       -0.000483661072     0.000062430935     0.000493518382
       9        0.000508507380    -0.000341601851     0.001162207073
      10       -0.000375192605    -0.000311810448    -0.004361706753
      11       -0.000297903576     0.000040847427     0.001801103157
      12        0.000771929359    -0.000415295191     0.000091369133
      13        0.000168529475     0.000597927207     0.000953523477
      14       -0.000143908867    -0.000283788334     0.000564408317
      15        0.000117701730     0.000142809419     0.000344357080
      16       -0.000276838237     0.000971254510     0.000005304128
      17       -0.000056744329     0.000094656873    -0.000031777605
      18        0.000128141440     0.000003085971    -0.000099692376
      19       -0.000126821938     0.000001748010     0.000192489889
      20        0.000039825095    -0.000009273460    -0.000082523448
      21        0.000324767170    -0.000020128581    -0.000216567637
      22        0.000043006864     0.000045387634    -0.000085527798
      23       -0.000033833598    -0.000005097536    -0.000055660936

  **** Optimization is complete! (in 8 steps) ****
    Final optimized geometry and variables:
    Molecular point group: c1

    Geometry (in Angstrom), charge = 0, multiplicity = 1:

    N           -0.778463804683    -1.563868308038     0.194377134934
    C           -2.076570433900    -1.379089772934     0.592149533122
    C           -2.439653531433     0.093493904628     0.881232212425
    F           -3.758400364170     0.265908832359     0.791368990520
    F           -2.058220262501     0.322336729295     2.184616239356
    C           -1.680198500046     1.146188695518     0.038073276327
    C           -0.294161501827     0.776695162984    -0.298048216836
    C            0.607506003511     1.746068207714    -0.744571927745
    C            1.910092454736     1.403807747133    -1.073458875213
    C            2.320515915330     0.069148221847    -0.971381242789
    C            1.428118613185    -0.908128026901    -0.531883206993
    C            0.119271803286    -0.562211284279    -0.197203199714
    S            4.005765731631    -0.386981473870    -1.355886072033
    C            4.716940265154    -0.308635669909     0.320502220081
    O           -2.854190770225    -2.285094505589     0.776251114351
    O           -2.205205061092     2.198633072332    -0.239955607718
    H            2.611071076950     2.159043947753    -1.413104941785
    H            0.262862686764     2.772608909479    -0.822566243448
    H           -0.498566672233    -2.531862229479     0.092173571907
    H            1.754630849443    -1.942695822367    -0.466997480926
    H            4.705611006357     0.714508519278     0.702847884716
    H            4.181635437886    -0.971106025593     1.004461869005
    H            5.752912720321    -0.646275519498     0.235126600905

*** Psi4 exiting successfully. Buy a developer a beer!
