                               Psi4 1.3.2 release

  ==> Input File <==

--------------------------------------------------------------------------
molecule {
0 1
 N   -0.956944   -1.462396    0.040156
 C   -2.296512   -1.176585    0.072557
 C   -2.671509    0.336833    0.205402
 F   -3.512534    0.649539   -0.839670
 F   -3.371585    0.486082    1.381491
 C   -1.494281    1.373322    0.209017
 C   -0.112390    0.842525    0.160714
 C    0.988054    1.728229    0.176660
 C    2.302520    1.246067    0.151584
 C    2.549879   -0.150348    0.087501
 C    1.451105   -1.036220    0.060619
 C    0.129812   -0.557324    0.088806
 S    4.158707   -0.890140    0.087916
 C    5.010591   -0.115486   -1.310961
 O   -3.122368   -2.075804    0.007987
 O   -1.724818    2.577653    0.264817
 H    3.119844    1.964631    0.203615
 H    0.787705    2.799075    0.222104
 H   -0.779215   -2.454538   -0.037090
 H    1.629709   -2.111869    0.028157
 H    4.515445   -0.410413   -2.241457
 H    4.987106    0.972937   -1.204992
 H    6.049710   -0.457824   -1.325893
}
set optking {
  frozen_dihedral = ("
    11 10 13 14
    9 10 13 14
    21 14 13 10
  ")
}
set {
  geom_maxiter 400
  g_convergence GAU_LOOSE
  dynamic_level 1
}
memory 16GB
set_num_threads(8)
psi4_io.set_default_path("/scratch/Psi4-ligand")
for _ in range(1):
  try:
    set opt_coordinates both
    optimize('wb97x-d/6-31+G*')
    break
  except OptimizationConvergenceError:
    break
  else:
    try:
      set opt_coordinates cartesian
      optimize('wb97x-d/6-31+G*')
      break
    except OptimizationConvergenceError:
      pass
clean()
--------------------------------------------------------------------------

    Molecular point group: c1
  Charge       = 0
  Multiplicity = 1
  Basis Set: 6-31+G*
    Blend: 6-31+G*
  Basis Set: (6-31+G* AUX)
    Blend: HEAVY-AUG-CC-PVDZ-JKFIT
  @DF-RKS Final Energy: -1188.11356070324496
    Total Energy =                      -1188.1135607032449570
    Molecular point group: c1
  Basis Set: 6-31+G*
    Blend: 6-31+G*
  Basis Set: (6-31+G* AUX)
    Blend: HEAVY-AUG-CC-PVDZ-JKFIT
  Basis Set: 6-31+G*
    Blend: 6-31+G*
  Basis Set: (6-31+G* AUX)
    Blend: HEAVY-AUG-CC-PVDZ-JKFIT
  @DF-RKS Final Energy: -1187.62243535358903
    Total Energy =                      -1187.6224353535890259
  Basis Set: 6-31+G*
    Blend: 6-31+G*
  Basis Set: (6-31+G* AUX)
    Blend: HEAVY-AUG-CC-PVDZ-JKFIT
  Basis Set: 6-31+G*
    Blend: 6-31+G*
  @DF-RKS Final Energy: -1187.83296939944148
    Total Energy =                      -1187.8329693994414811
  @DF-RKS Final Energy: -1188.06526638482455
    Total Energy =                      -1188.0652663848243265
  @DF-RKS Final Energy: -1188.11012505654753
    Total Energy =                      -1188.1101250565475311
  @DF-RKS Final Energy: -1188.11872973769209
    Total Energy =                      -1188.1187297376920924
  @DF-RKS Final Energy: -1188.12001668341759
    Total Energy =                      -1188.1200166834175889
  @DF-RKS Final Energy: -1188.11978850664377
    Total Energy =                      -1188.1197885066437721
  @DF-RKS Final Energy: -1188.12001675016586
    Total Energy =                      -1188.1200167501656324
  @DF-RKS Final Energy: -1188.11988099371365
    Total Energy =                      -1188.1198809937136502
  @DF-RKS Final Energy: -1188.12007400450852
    Total Energy =                      -1188.1200740045085240
  @DF-RKS Final Energy: -1188.12011349269642
    Total Energy =                      -1188.1201134926964187
  @DF-RKS Final Energy: -1188.12014995448567
    Total Energy =                      -1188.1201499544858962
  @DF-RKS Final Energy: -1188.12014176625235
    Total Energy =                      -1188.1201417662525728
  @DF-RKS Final Energy: -1188.12015345751342
    Total Energy =                      -1188.1201534575134247
  @DF-RKS Final Energy: -1188.12015991433645
    Total Energy =                      -1188.1201599143364547
  @DF-RKS Final Energy: -1188.11564081055940
    Total Energy =                      -1188.1156408105593982
  Basis Set: (6-31+G* AUX)
    Blend: HEAVY-AUG-CC-PVDZ-JKFIT
  Basis Set: 6-31+G*
    Blend: 6-31+G*
  Basis Set: (6-31+G* AUX)
    Blend: HEAVY-AUG-CC-PVDZ-JKFIT
  @DF-RKS Final Energy: -1188.11904460496385
    Total Energy =                      -1188.1190446049636193
  Basis Set: 6-31+G*
    Blend: 6-31+G*
  Basis Set: (6-31+G* AUX)
    Blend: HEAVY-AUG-CC-PVDZ-JKFIT
  Charge       = 0
  Multiplicity = 1
  Basis Set: 6-31+G*
    Blend: 6-31+G*
  Basis Set: (6-31+G* AUX)
    Blend: HEAVY-AUG-CC-PVDZ-JKFIT

    Orbital Energies [Eh]
    ---------------------

    Doubly Occupied:

       1A    -89.075007     2A    -24.874554     3A    -24.873546
       4A    -19.306890     5A    -19.294689     6A    -14.543573
       7A    -10.502447     8A    -10.455137     9A    -10.431838
      10A    -10.408380    11A    -10.382148    12A    -10.352818
      13A    -10.351445    14A    -10.350599    15A    -10.349667
      16A    -10.342830    17A     -8.092267    18A     -6.043037
      19A     -6.038905    20A     -6.032047    21A     -1.393666
      22A     -1.332563    23A     -1.195879    24A     -1.186924
      25A     -1.101759    26A     -1.006138    27A     -0.940901
      28A     -0.906201    29A     -0.889988    30A     -0.867817
      31A     -0.795022    32A     -0.768388    33A     -0.756046
      34A     -0.743806    35A     -0.699049    36A     -0.684845
      37A     -0.672766    38A     -0.648082    39A     -0.631431
      40A     -0.592651    41A     -0.583669    42A     -0.571093
      43A     -0.563925    44A     -0.559580    45A     -0.557851
      46A     -0.554511    47A     -0.541637    48A     -0.537455
      49A     -0.524668    50A     -0.518681    51A     -0.510892
      52A     -0.500001    53A     -0.497427    54A     -0.480156
      55A     -0.476928    56A     -0.443722    57A     -0.426320
      58A     -0.397667    59A     -0.380872    60A     -0.367284
      61A     -0.342751    62A     -0.326038

  @DF-RKS Final Energy: -1188.12015996816785

   => Energetics <=

    Nuclear Repulsion Energy =           1188.2215607328355418
    One-Electron Energy =               -3990.3893628085138516
    Two-Electron Energy =                1703.6140475341985621
    DFT Exchange-Correlation Energy =     -89.5527557151986286
    Empirical Dispersion Energy =          -0.0136497114897664
    VV10 Nonlocal Energy =                  0.0000000000000000
    Total Energy =                      -1188.1201599681678545

  Dipole Moment: [D]
     X:     6.0968      Y:     1.2121      Z:    -3.8173     Total:     7.2947

    Molecular point group: c1
  Basis Set: 6-31+G*
    Blend: 6-31+G*
  Basis Set: (6-31+G* AUX)
    Blend: HEAVY-AUG-CC-PVDZ-JKFIT

  -Total Gradient:
     Atom            X                  Y                   Z
    ------   -----------------  -----------------  -----------------
       1        0.000057658880     0.000163577330     0.000021048593
       2       -0.000438300324    -0.000020510146    -0.000435880069
       3        0.000568394603    -0.000527551032     0.000823384117
       4       -0.000129342906     0.000105556322    -0.000306161419
       5       -0.000013044643     0.000141023463    -0.000558159787
       6       -0.000255041850     0.000470039326     0.000134085345
       7        0.000078071545    -0.000169945278    -0.000175988533
       8       -0.000093909254     0.000057735438     0.000002397531
       9        0.000067062688     0.000140680148    -0.000235326757
      10        0.000623439864    -0.000347720573     0.001513338444
      11       -0.000204106268     0.000171303758    -0.000847540149
      12        0.000021540604    -0.000064376949     0.000104448735
      13       -0.000074657834     0.000492815556    -0.000708548741
      14       -0.000638590370     0.000030931408     0.000446016419
      15        0.000335108340     0.000133337570     0.000262800147
      16        0.000169706591    -0.000385262955    -0.000073396439
      17        0.000018645413    -0.000035068302    -0.000023454438
      18        0.000084401690    -0.000186385079    -0.000107309396
      19        0.000014713408     0.000011425660    -0.000001171276
      20       -0.000039674349     0.000184988533     0.000099668874
      21        0.000524504235    -0.000378844047    -0.000299006566
      22        0.000022682989    -0.000146012406    -0.000100133985
      23       -0.000021068856     0.000032789774     0.000007193433

  **** Optimization is complete! (in 1 steps) ****
    Final optimized geometry and variables:
    Molecular point group: c1

    Geometry (in Angstrom), charge = 0, multiplicity = 1:

    N           -0.705894252336    -1.621413153224    -0.262414229119
    C           -1.966032241826    -1.664635906453     0.272846666550
    C           -2.414885403556    -0.402294366467     1.046734401748
    F           -3.597741410256    -0.003194718516     0.525818234925
    F           -2.620164938949    -0.778434399505     2.334291080049
    C           -1.456086846167     0.820075259445     1.061916870317
    C           -0.147639351753     0.652825158743     0.414172318899
    C            0.777748645715     1.704916717777     0.425210039304
    C            2.016296410905     1.571083831895    -0.172692896394
    C            2.346715246969     0.368482422931    -0.817663704604
    C            1.433570212122    -0.682376496404    -0.844059845867
    C            0.190781851676    -0.550724126969    -0.219907456963
    S            3.939349815289     0.117328243788    -1.572105554713
    C            4.013334860127     1.525187345588    -2.719354105575
    O           -2.690214301698    -2.627079895229     0.173075985228
    O           -1.826999933333     1.833430833119     1.608461949106
    H            2.734618102697     2.382557537512    -0.124790781127
    H            0.498328554515     2.623410597783     0.931407037005
    H           -0.425289811166    -2.466313406387    -0.745783721227
    H            1.689217519428    -1.602748139581    -1.361158755433
    H            3.251043953984     1.434721332104    -3.495825474439
    H            3.913238008975     2.480197500035    -2.200267461720
    H            5.001084923616     1.485700661078    -3.185316331107

*** Psi4 exiting successfully. Buy a developer a beer!
