                               Psi4 1.3.2 release

  ==> Input File <==

--------------------------------------------------------------------------
molecule {
0 1
 N   -1.015822   -1.490143    0.149085
 C   -2.314458   -1.139685    0.406536
 C   -2.602837    0.377905    0.494302
 F   -3.544122    0.662650   -0.438643
 F   -3.132200    0.616730    1.719028
 C   -1.414852    1.356883    0.288677
 C   -0.100214    0.765414    0.023505
 C    1.015746    1.585239   -0.173724
 C    2.267351    1.055382   -0.430819
 C    2.429037   -0.337928   -0.501347
 C    1.322567   -1.170323   -0.297662
 C    0.067491   -0.628512   -0.043694
 S    3.955501   -1.174452   -0.782862
 C    5.217360    0.126395   -0.816841
 O   -3.195997   -1.953199    0.558355
 O   -1.636024    2.545591    0.357279
 H    3.097869    1.728706   -0.603498
 H    0.873351    2.660613   -0.124267
 H   -0.852953   -2.488413    0.094485
 H    1.445805   -2.250186   -0.335714
 H    5.441315    0.442812   -1.837421
 H    4.949785    0.973029   -0.184348
 H    6.119926   -0.326782   -0.398599
}
memory 16GB
set_num_threads(8)
psi4_io.set_default_path("/scratch/Psi4-ligand")
set freeze_core True
E, wfn = energy('wb97x-d/6-311++g**',return_wfn=True)
oeprop(wfn,"WIBERG_LOWDIN_INDICES")
clean()
--------------------------------------------------------------------------

    Molecular point group: c1

    Geometry (in Angstrom), charge = 0, multiplicity = 1:

       Center              X                  Y                   Z               Mass
    ------------   -----------------  -----------------  -----------------  -----------------
         N           -1.015822048750    -1.490142994457     0.149085004429    14.003074004430
         C           -2.314458048750    -1.139684994457     0.406536004429    12.000000000000
         C           -2.602837048750     0.377905005543     0.494302004429    12.000000000000
         F           -3.544122048750     0.662650005543    -0.438642995571    18.998403162730
         F           -3.132200048750     0.616730005543     1.719028004429    18.998403162730
         C           -1.414852048750     1.356883005543     0.288677004429    12.000000000000
         C           -0.100214048750     0.765414005543     0.023505004429    12.000000000000
         C            1.015745951250     1.585239005543    -0.173723995571    12.000000000000
         C            2.267350951250     1.055382005543    -0.430818995571    12.000000000000
         C            2.429036951250    -0.337927994457    -0.501346995571    12.000000000000
         C            1.322566951250    -1.170322994457    -0.297661995571    12.000000000000
         C            0.067490951250    -0.628511994457    -0.043693995571    12.000000000000
         S            3.955500951250    -1.174451994457    -0.782861995571    31.972071174400
         C            5.217359951250     0.126395005543    -0.816840995571    12.000000000000
         O           -3.195997048750    -1.953198994457     0.558355004429    15.994914619570
         O           -1.636024048750     2.545591005543     0.357279004429    15.994914619570
         H            3.097868951250     1.728706005543    -0.603497995571     1.007825032230
         H            0.873350951250     2.660613005543    -0.124266995571     1.007825032230
         H           -0.852953048750    -2.488412994457     0.094485004429     1.007825032230
         H            1.445804951250    -2.250185994457    -0.335713995571     1.007825032230
         H            5.441314951250     0.442812005543    -1.837420995571     1.007825032230
         H            4.949784951250     0.973029005543    -0.184347995571     1.007825032230
         H            6.119925951250    -0.326781994457    -0.398598995571     1.007825032230

  Charge       = 0
  Multiplicity = 1
  Basis Set: 6-311++G**
    Blend: 6-311++G**
  Basis Set: (6-311++G** AUX)
    Blend: AUG-CC-PVTZ-JKFIT

    Orbital Energies [Eh]
    ---------------------

    Doubly Occupied:

       1A    -89.054204     2A    -24.838768     3A    -24.838756
       4A    -19.268997     5A    -19.260044     6A    -14.516805
       7A    -10.484658     8A    -10.436238     9A    -10.411028
      10A    -10.390926    11A    -10.373262    12A    -10.341426
      13A    -10.334874    14A    -10.331210    15A    -10.330742
      16A    -10.324694    17A     -8.094824    18A     -6.044321
      19A     -6.039821    20A     -6.034000    21A     -1.389050
      22A     -1.327629    23A     -1.192136    24A     -1.179950
      25A     -1.098399    26A     -1.006623    27A     -0.944582
      28A     -0.906445    29A     -0.888822    30A     -0.868839
      31A     -0.800671    32A     -0.765744    33A     -0.753482
      34A     -0.745934    35A     -0.697407    36A     -0.684232
      37A     -0.669718    38A     -0.646945    39A     -0.630561
      40A     -0.593264    41A     -0.588363    42A     -0.569100
      43A     -0.563744    44A     -0.557894    45A     -0.556010
      46A     -0.554643    47A     -0.549195    48A     -0.534837
      49A     -0.519065    50A     -0.516317    51A     -0.507964
      52A     -0.498981    53A     -0.490473    54A     -0.489165
      55A     -0.475572    56A     -0.443742    57A     -0.433853
      58A     -0.399256    59A     -0.395211    60A     -0.363987
      61A     -0.341782    62A     -0.319477

  @DF-RKS Final Energy: -1188.33126901134983

   => Energetics <=

    Nuclear Repulsion Energy =           1187.3392493372891749
    One-Electron Energy =               -3989.6512104159937735
    Two-Electron Energy =                1703.7329730954745628
    DFT Exchange-Correlation Energy =     -89.7387877135021341
    Empirical Dispersion Energy =          -0.0134933146177206
    VV10 Nonlocal Energy =                  0.0000000000000000
    Total Energy =                      -1188.3312690113498320

  Dipole Moment: [D]
     X:     8.2775      Y:    -1.1246      Z:    -1.4148     Total:     8.4725

*** Psi4 exiting successfully. Buy a developer a beer!
