                               Psi4 1.3.2 release

  ==> Input File <==

--------------------------------------------------------------------------
molecule {
0 1
 N   -0.933991   -1.543430    0.147930
 C   -2.264722   -1.260355    0.306603
 C   -2.637851    0.240860    0.353845
 F   -3.520393    0.467959   -0.649350
 F   -3.268265    0.461480    1.533054
 C   -1.490205    1.279530    0.222848
 C   -0.130599    0.756077    0.057835
 C    0.949196    1.636660   -0.072779
 C    2.242498    1.172901   -0.226175
 C    2.480947   -0.210311   -0.264566
 C    1.410967   -1.101450   -0.146666
 C    0.113488   -0.626563    0.025893
 S    4.086802   -0.933444   -0.406182
 C    5.062254    0.343867   -1.242430
 O   -3.111198   -2.118049    0.404788
 O   -1.775609    2.455761    0.261345
 H    3.056203    1.883110   -0.310529
 H    0.743297    2.702219   -0.042260
 H   -0.715228   -2.532221    0.122332
 H    1.592970   -2.171936   -0.198872
 H    4.701955    0.515641   -2.259152
 H    5.106060    1.276840   -0.677657
 H    6.075115   -0.063466   -1.298964
}
memory 16GB
set_num_threads(8)
psi4_io.set_default_path("/scratch/Psi4-ligand")
set freeze_core True
E, wfn = energy('wb97x-d/6-311++g**',return_wfn=True)
oeprop(wfn,"WIBERG_LOWDIN_INDICES")
clean()
--------------------------------------------------------------------------

    Molecular point group: c1

    Geometry (in Angstrom), charge = 0, multiplicity = 1:

       Center              X                  Y                   Z               Mass
    ------------   -----------------  -----------------  -----------------  -----------------
         N           -0.933990961137    -1.543430031654     0.147930042470    14.003074004430
         C           -2.264721961137    -1.260355031654     0.306603042470    12.000000000000
         C           -2.637850961137     0.240859968346     0.353845042470    12.000000000000
         F           -3.520392961137     0.467958968346    -0.649349957530    18.998403162730
         F           -3.268264961137     0.461479968346     1.533054042470    18.998403162730
         C           -1.490204961137     1.279529968346     0.222848042470    12.000000000000
         C           -0.130598961137     0.756076968346     0.057835042470    12.000000000000
         C            0.949196038863     1.636659968346    -0.072778957530    12.000000000000
         C            2.242498038863     1.172900968346    -0.226174957530    12.000000000000
         C            2.480947038863    -0.210311031654    -0.264565957530    12.000000000000
         C            1.410967038863    -1.101450031654    -0.146665957530    12.000000000000
         C            0.113488038863    -0.626563031654     0.025893042470    12.000000000000
         S            4.086802038863    -0.933444031654    -0.406181957530    31.972071174400
         C            5.062254038863     0.343866968346    -1.242429957530    12.000000000000
         O           -3.111197961137    -2.118049031654     0.404788042470    15.994914619570
         O           -1.775608961137     2.455760968346     0.261345042470    15.994914619570
         H            3.056203038863     1.883109968346    -0.310528957530     1.007825032230
         H            0.743297038863     2.702218968346    -0.042259957530     1.007825032230
         H           -0.715227961137    -2.532221031654     0.122332042470     1.007825032230
         H            1.592970038863    -2.171936031654    -0.198871957530     1.007825032230
         H            4.701955038863     0.515640968346    -2.259151957530     1.007825032230
         H            5.106060038863     1.276839968346    -0.677656957530     1.007825032230
         H            6.075115038863    -0.063466031654    -1.298963957530     1.007825032230

  Charge       = 0
  Multiplicity = 1
  Basis Set: 6-311++G**
    Blend: 6-311++G**
  Basis Set: (6-311++G** AUX)
    Blend: AUG-CC-PVTZ-JKFIT

    Orbital Energies [Eh]
    ---------------------

    Doubly Occupied:

       1A    -89.051375     2A    -24.839853     3A    -24.839694
       4A    -19.270639     5A    -19.261032     6A    -14.517758
       7A    -10.485757     8A    -10.437184     9A    -10.412350
      10A    -10.391729    11A    -10.370820    12A    -10.340098
      13A    -10.334941    14A    -10.332844    15A    -10.331627
      16A    -10.324961    17A     -8.091985    18A     -6.041491
      19A     -6.037116    20A     -6.031032    21A     -1.390142
      22A     -1.328694    23A     -1.193072    24A     -1.181466
      25A     -1.099298    26A     -1.006632    27A     -0.943891
      28A     -0.906598    29A     -0.889162    30A     -0.868629
      31A     -0.799117    32A     -0.766563    33A     -0.754098
      34A     -0.745572    35A     -0.698045    36A     -0.684618
      37A     -0.670746    38A     -0.647404    39A     -0.630806
      40A     -0.593301    41A     -0.586808    42A     -0.570022
      43A     -0.564302    44A     -0.558507    45A     -0.555930
      46A     -0.555668    47A     -0.548943    48A     -0.535773
      49A     -0.520153    50A     -0.517207    51A     -0.509244
      52A     -0.499066    53A     -0.494643    54A     -0.484272
      55A     -0.476214    56A     -0.444513    57A     -0.431784
      58A     -0.396763    59A     -0.394722    60A     -0.365187
      61A     -0.342634    62A     -0.321631

  @DF-RKS Final Energy: -1188.33274268532978

   => Energetics <=

    Nuclear Repulsion Energy =           1187.7961339912217227
    One-Electron Energy =               -3990.5534156839771640
    Two-Electron Energy =                1704.1757993497494681
    DFT Exchange-Correlation Energy =     -89.7376431856320238
    Empirical Dispersion Energy =          -0.0136171566915606
    VV10 Nonlocal Energy =                  0.0000000000000000
    Total Energy =                      -1188.3327426853295492

  Dipole Moment: [D]
     X:     7.9579      Y:    -0.7487      Z:    -1.6352     Total:     8.1586

*** Psi4 exiting successfully. Buy a developer a beer!
