                               Psi4 1.3.2 release

  ==> Input File <==

--------------------------------------------------------------------------
molecule {
0 1
 N   -1.004326   -1.506978    0.187257
 C   -2.257627   -1.177496    0.632676
 C   -2.555045    0.338859    0.664043
 F   -3.146342    0.619410   -0.544679
 F   -3.434560    0.601381    1.635577
 C   -1.332979    1.286460    0.762850
 C   -0.075272    0.746122    0.235978
 C    1.022830    1.584464    0.024364
 C    2.223175    1.096882   -0.462426
 C    2.351180   -0.272845   -0.743188
 C    1.261475   -1.124987   -0.525570
 C    0.056408   -0.624931   -0.045118
 S    3.811871   -1.071954   -1.330461
 C    5.107863    0.198344   -1.350446
 O   -3.094828   -1.999253    0.923522
 O   -1.481557    2.405762    1.198491
 H    3.034860    1.789579   -0.647295
 H    0.906239    2.641289    0.244663
 H   -0.840204   -2.500939    0.082436
 H    1.360432   -2.189098   -0.726037
 H    6.036118   -0.304312   -1.068210
 H    5.205455    0.668695   -2.330015
 H    4.927329    0.955809   -0.585434
}
memory 16GB
set_num_threads(8)
psi4_io.set_default_path("/scratch/Psi4-ligand")
set freeze_core True
E, wfn = energy('wb97x-d/6-311++g**',return_wfn=True)
oeprop(wfn,"WIBERG_LOWDIN_INDICES")
clean()
--------------------------------------------------------------------------

    Molecular point group: c1

    Geometry (in Angstrom), charge = 0, multiplicity = 1:

       Center              X                  Y                   Z               Mass
    ------------   -----------------  -----------------  -----------------  -----------------
         N           -1.004326000462    -1.506978131024     0.187256911343    14.003074004430
         C           -2.257627000462    -1.177496131024     0.632675911343    12.000000000000
         C           -2.555045000462     0.338858868976     0.664042911343    12.000000000000
         F           -3.146342000462     0.619409868976    -0.544679088657    18.998403162730
         F           -3.434560000462     0.601380868976     1.635576911343    18.998403162730
         C           -1.332979000462     1.286459868976     0.762849911343    12.000000000000
         C           -0.075272000462     0.746121868976     0.235977911343    12.000000000000
         C            1.022829999538     1.584463868976     0.024363911343    12.000000000000
         C            2.223174999538     1.096881868976    -0.462426088657    12.000000000000
         C            2.351179999538    -0.272845131024    -0.743188088657    12.000000000000
         C            1.261474999538    -1.124987131024    -0.525570088657    12.000000000000
         C            0.056407999538    -0.624931131024    -0.045118088657    12.000000000000
         S            3.811870999538    -1.071954131024    -1.330461088657    31.972071174400
         C            5.107862999538     0.198343868976    -1.350446088657    12.000000000000
         O           -3.094828000462    -1.999253131024     0.923521911343    15.994914619570
         O           -1.481557000462     2.405761868976     1.198490911343    15.994914619570
         H            3.034859999538     1.789578868976    -0.647295088657     1.007825032230
         H            0.906238999538     2.641288868976     0.244662911343     1.007825032230
         H           -0.840204000462    -2.500939131024     0.082435911343     1.007825032230
         H            1.360431999538    -2.189098131024    -0.726037088657     1.007825032230
         H            6.036117999538    -0.304312131024    -1.068210088657     1.007825032230
         H            5.205454999538     0.668694868976    -2.330015088657     1.007825032230
         H            4.927328999538     0.955808868976    -0.585434088657     1.007825032230

  Charge       = 0
  Multiplicity = 1
  Basis Set: 6-311++G**
    Blend: 6-311++G**
  Basis Set: (6-311++G** AUX)
    Blend: AUG-CC-PVTZ-JKFIT

    Orbital Energies [Eh]
    ---------------------

    Doubly Occupied:

       1A    -89.053178     2A    -24.840590     3A    -24.839901
       4A    -19.270781     5A    -19.261474     6A    -14.515719
       7A    -10.484384     8A    -10.436572     9A    -10.411594
      10A    -10.390044    11A    -10.372636    12A    -10.341068
      13A    -10.334444    14A    -10.330590    15A    -10.330082
      16A    -10.324214    17A     -8.093738    18A     -6.043257
      19A     -6.038725    20A     -6.032909    21A     -1.390643
      22A     -1.328966    23A     -1.192713    24A     -1.181255
      25A     -1.097966    26A     -1.005756    27A     -0.943683
      28A     -0.906811    29A     -0.888570    30A     -0.868978
      31A     -0.799766    32A     -0.765603    33A     -0.753853
      34A     -0.745594    35A     -0.697560    36A     -0.682806
      37A     -0.670618    38A     -0.646254    39A     -0.630704
      40A     -0.593393    41A     -0.587549    42A     -0.570362
      43A     -0.564008    44A     -0.559116    45A     -0.557389
      46A     -0.551780    47A     -0.549562    48A     -0.534762
      49A     -0.520463    50A     -0.514892    51A     -0.509449
      52A     -0.499008    53A     -0.492235    54A     -0.488794
      55A     -0.475463    56A     -0.443912    57A     -0.431746
      58A     -0.399265    59A     -0.395740    60A     -0.364806
      61A     -0.341373    62A     -0.318879

  @DF-RKS Final Energy: -1188.33231286543628

   => Energetics <=

    Nuclear Repulsion Energy =           1189.6255890893494325
    One-Electron Energy =               -3994.2279067174822558
    Two-Electron Energy =                1706.0211791443462062
    DFT Exchange-Correlation Energy =     -89.7375737997592324
    Empirical Dispersion Energy =          -0.0136005818903703
    VV10 Nonlocal Energy =                  0.0000000000000000
    Total Energy =                      -1188.3323128654362790

  Dipole Moment: [D]
     X:     7.8586      Y:    -0.9038      Z:    -2.1508     Total:     8.1976

*** Psi4 exiting successfully. Buy a developer a beer!
