                               Psi4 1.3.2 release

  ==> Input File <==

--------------------------------------------------------------------------
molecule {
0 1
 N   -1.011167   -1.500921    0.183144
 C   -2.289787   -1.155344    0.532730
 C   -2.590862    0.363058    0.512566
 F   -3.231701    0.606542   -0.674269
 F   -3.435259    0.648097    1.513769
 C   -1.374668    1.326678    0.556073
 C   -0.085552    0.754424    0.154193
 C    1.030125    1.579935   -0.019735
 C    2.261226    1.063879   -0.380172
 C    2.400256   -0.319879   -0.578443
 C    1.300591   -1.159927   -0.377058
 C    0.063884   -0.631487   -0.022822
 S    3.900349   -1.128400   -1.031659
 C    5.146926    0.181729   -1.029555
 O   -3.147909   -1.969438    0.781907
 O   -1.553881    2.484927    0.859183
 H    3.102238    1.735413   -0.497429
 H    0.902386    2.646326    0.140187
 H   -0.842585   -2.498107    0.126325
 H    1.411680   -2.234269   -0.503732
 H    5.944168   -0.157995   -1.693731
 H    4.757963    1.105047   -1.463964
 H    5.539145    0.372691   -0.028873
}
memory 16GB
set_num_threads(8)
psi4_io.set_default_path("/scratch/Psi4-ligand")
set freeze_core True
E, wfn = energy('wb97x-d/6-311++g**',return_wfn=True)
oeprop(wfn,"WIBERG_LOWDIN_INDICES")
clean()
--------------------------------------------------------------------------

    Molecular point group: c1

    Geometry (in Angstrom), charge = 0, multiplicity = 1:

       Center              X                  Y                   Z               Mass
    ------------   -----------------  -----------------  -----------------  -----------------
         N           -1.011167028595    -1.500921116958     0.183144077161    14.003074004430
         C           -2.289787028595    -1.155344116958     0.532730077161    12.000000000000
         C           -2.590862028595     0.363057883042     0.512566077161    12.000000000000
         F           -3.231701028595     0.606541883042    -0.674268922839    18.998403162730
         F           -3.435259028595     0.648096883042     1.513769077161    18.998403162730
         C           -1.374668028595     1.326677883042     0.556073077161    12.000000000000
         C           -0.085552028595     0.754423883042     0.154193077161    12.000000000000
         C            1.030124971405     1.579934883042    -0.019734922839    12.000000000000
         C            2.261225971405     1.063878883042    -0.380171922839    12.000000000000
         C            2.400255971405    -0.319879116958    -0.578442922839    12.000000000000
         C            1.300590971405    -1.159927116958    -0.377057922839    12.000000000000
         C            0.063883971405    -0.631487116958    -0.022821922839    12.000000000000
         S            3.900348971405    -1.128400116958    -1.031658922839    31.972071174400
         C            5.146925971405     0.181728883042    -1.029554922839    12.000000000000
         O           -3.147909028595    -1.969438116958     0.781907077161    15.994914619570
         O           -1.553881028595     2.484926883042     0.859183077161    15.994914619570
         H            3.102237971405     1.735412883042    -0.497428922839     1.007825032230
         H            0.902385971405     2.646325883042     0.140187077161     1.007825032230
         H           -0.842585028595    -2.498107116958     0.126325077161     1.007825032230
         H            1.411679971405    -2.234269116958    -0.503731922839     1.007825032230
         H            5.944167971405    -0.157995116958    -1.693730922839     1.007825032230
         H            4.757962971405     1.105046883042    -1.463963922839     1.007825032230
         H            5.539144971405     0.372690883042    -0.028872922839     1.007825032230

  Charge       = 0
  Multiplicity = 1
  Basis Set: 6-311++G**
    Blend: 6-311++G**
  Basis Set: (6-311++G** AUX)
    Blend: AUG-CC-PVTZ-JKFIT

    Orbital Energies [Eh]
    ---------------------

    Doubly Occupied:

       1A    -89.053598     2A    -24.840486     3A    -24.839098
       4A    -19.270126     5A    -19.261119     6A    -14.516279
       7A    -10.484808     8A    -10.436639     9A    -10.411481
      10A    -10.390411    11A    -10.372166    12A    -10.340948
      13A    -10.334473    14A    -10.330894    15A    -10.330341
      16A    -10.324140    17A     -8.094246    18A     -6.043729
      19A     -6.039267    20A     -6.033410    21A     -1.390076
      22A     -1.328497    23A     -1.192656    24A     -1.180765
      25A     -1.098382    26A     -1.006400    27A     -0.944742
      28A     -0.907020    29A     -0.888610    30A     -0.868845
      31A     -0.800015    32A     -0.765649    33A     -0.753775
      34A     -0.745670    35A     -0.697495    36A     -0.683345
      37A     -0.670340    38A     -0.646617    39A     -0.630729
      40A     -0.593486    41A     -0.588342    42A     -0.569928
      43A     -0.564067    44A     -0.558358    45A     -0.557758
      46A     -0.552739    47A     -0.550311    48A     -0.534962
      49A     -0.518330    50A     -0.515449    51A     -0.509572
      52A     -0.499127    53A     -0.492504    54A     -0.488084
      55A     -0.475609    56A     -0.444151    57A     -0.433397
      58A     -0.399160    59A     -0.395691    60A     -0.364523
      61A     -0.341615    62A     -0.319537

  @DF-RKS Final Energy: -1188.33289818942899

   => Energetics <=

    Nuclear Repulsion Energy =           1189.3151374686990494
    One-Electron Energy =               -3993.5942810857695804
    Two-Electron Energy =                1705.7002269043723572
    DFT Exchange-Correlation Energy =     -89.7403763592800630
    Empirical Dispersion Energy =          -0.0136051174506653
    VV10 Nonlocal Energy =                  0.0000000000000000
    Total Energy =                      -1188.3328981894289882

  Dipole Moment: [D]
     X:     8.0213      Y:    -1.0273      Z:    -1.6601     Total:     8.2554

*** Psi4 exiting successfully. Buy a developer a beer!
