                               Psi4 1.3.2 release

  ==> Input File <==

--------------------------------------------------------------------------
molecule {
0 1
 N   -1.069437   -1.471691   -0.114120
 C   -2.385068   -1.099928   -0.015187
 C   -2.597026    0.376949    0.386261
 F   -3.796625    0.789466   -0.032497
 F   -2.588661    0.394874    1.761194
 C   -1.486522    1.363949   -0.053602
 C   -0.140652    0.782688   -0.113475
 C    0.988507    1.602692   -0.177094
 C    2.265607    1.072931   -0.242474
 C    2.438243   -0.319141   -0.267261
 C    1.313802   -1.151560   -0.201167
 C    0.034822   -0.611870   -0.132879
 S    3.976431   -1.185261   -0.329318
 C    5.298971    0.057591   -0.220546
 O   -3.305562   -1.870112   -0.154302
 O   -1.757869    2.523703   -0.265296
 H    3.108221    1.751212   -0.283453
 H    0.839475    2.678114   -0.165392
 H   -0.917874   -2.457444   -0.290116
 H    1.442242   -2.231218   -0.205697
 H    4.913916    1.075734   -0.245407
 H    5.845595   -0.083871    0.713703
 H    5.974372   -0.080503   -1.066505
}
memory 16GB
set_num_threads(8)
psi4_io.set_default_path("/scratch/Psi4-ligand")
set freeze_core True
E, wfn = energy('wb97x-d/6-311++g**',return_wfn=True)
oeprop(wfn,"WIBERG_LOWDIN_INDICES")
clean()
--------------------------------------------------------------------------

    Molecular point group: c1

    Geometry (in Angstrom), charge = 0, multiplicity = 1:

       Center              X                  Y                   Z               Mass
    ------------   -----------------  -----------------  -----------------  -----------------
         N           -1.069437154114    -1.471690967553    -0.114120045442    14.003074004430
         C           -2.385068154114    -1.099927967553    -0.015187045442    12.000000000000
         C           -2.597026154114     0.376949032447     0.386260954558    12.000000000000
         F           -3.796625154114     0.789466032447    -0.032497045442    18.998403162730
         F           -2.588661154114     0.394874032447     1.761193954558    18.998403162730
         C           -1.486522154114     1.363949032447    -0.053602045442    12.000000000000
         C           -0.140652154114     0.782688032447    -0.113475045442    12.000000000000
         C            0.988506845886     1.602692032447    -0.177094045442    12.000000000000
         C            2.265606845886     1.072931032447    -0.242474045442    12.000000000000
         C            2.438242845886    -0.319140967553    -0.267261045442    12.000000000000
         C            1.313801845886    -1.151559967553    -0.201167045442    12.000000000000
         C            0.034821845886    -0.611869967553    -0.132879045442    12.000000000000
         S            3.976430845886    -1.185260967553    -0.329318045442    31.972071174400
         C            5.298970845886     0.057591032447    -0.220546045442    12.000000000000
         O           -3.305562154114    -1.870111967553    -0.154302045442    15.994914619570
         O           -1.757869154114     2.523703032447    -0.265296045442    15.994914619570
         H            3.108220845886     1.751212032447    -0.283453045442     1.007825032230
         H            0.839474845886     2.678114032447    -0.165392045442     1.007825032230
         H           -0.917874154114    -2.457443967553    -0.290116045442     1.007825032230
         H            1.442241845886    -2.231217967553    -0.205697045442     1.007825032230
         H            4.913915845886     1.075734032447    -0.245407045442     1.007825032230
         H            5.845594845886    -0.083870967553     0.713702954558     1.007825032230
         H            5.974371845886    -0.080502967553    -1.066505045442     1.007825032230

  Charge       = 0
  Multiplicity = 1
  Basis Set: 6-311++G**
    Blend: 6-311++G**
  Basis Set: (6-311++G** AUX)
    Blend: AUG-CC-PVTZ-JKFIT

    Orbital Energies [Eh]
    ---------------------

    Doubly Occupied:

       1A    -89.052677     2A    -24.841442     3A    -24.839539
       4A    -19.271486     5A    -19.262129     6A    -14.515068
       7A    -10.484190     8A    -10.436622     9A    -10.411709
      10A    -10.389434    11A    -10.373062    12A    -10.340625
      13A    -10.334441    14A    -10.330146    15A    -10.329551
      16A    -10.324320    17A     -8.093258    18A     -6.042807
      19A     -6.038230    20A     -6.032404    21A     -1.390789
      22A     -1.329179    23A     -1.193054    24A     -1.181739
      25A     -1.097756    26A     -1.005605    27A     -0.943171
      28A     -0.906760    29A     -0.888677    30A     -0.869096
      31A     -0.799892    32A     -0.765452    33A     -0.753890
      34A     -0.745421    35A     -0.697775    36A     -0.682022
      37A     -0.670825    38A     -0.645774    39A     -0.631349
      40A     -0.594029    41A     -0.588938    42A     -0.571056
      43A     -0.564262    44A     -0.559736    45A     -0.557078
      46A     -0.549523    47A     -0.546970    48A     -0.535239
      49A     -0.520209    50A     -0.514920    51A     -0.510858
      52A     -0.499686    53A     -0.492148    54A     -0.489689
      55A     -0.475640    56A     -0.444103    57A     -0.431373
      58A     -0.399323    59A     -0.395733    60A     -0.364946
      61A     -0.341349    62A     -0.317483

  @DF-RKS Final Energy: -1188.33029295854521

   => Energetics <=

    Nuclear Repulsion Energy =           1190.2115749813592629
    One-Electron Energy =               -3995.3995289889353444
    Two-Electron Energy =                1706.6102899092034022
    DFT Exchange-Correlation Energy =     -89.7391063846452539
    Empirical Dispersion Energy =          -0.0135224755270491
    VV10 Nonlocal Energy =                  0.0000000000000000
    Total Energy =                      -1188.3302929585449874

  Dipole Moment: [D]
     X:     8.0565      Y:    -1.0177      Z:    -0.6218     Total:     8.1443

*** Psi4 exiting successfully. Buy a developer a beer!
