                               Psi4 1.3.2 release

  ==> Input File <==

--------------------------------------------------------------------------
molecule {
0 1
 N   -1.050659   -1.485924    0.122956
 C   -2.374499   -1.155927    0.247489
 C   -2.698194    0.373858    0.298723
 F   -3.560387    0.648560   -0.738993
 F   -3.356558    0.617319    1.483261
 C   -1.491028    1.370190    0.202775
 C   -0.133051    0.793153    0.076034
 C    0.993310    1.641523   -0.001323
 C    2.286311    1.116663   -0.122825
 C    2.487590   -0.289188   -0.181365
 C    1.360634   -1.136172   -0.092218
 C    0.061415   -0.614921    0.035708
 S    4.055804   -1.112778   -0.310377
 C    5.179491    0.063894   -1.110757
 O   -3.226133   -2.030639    0.312332
 O   -1.679650    2.582629    0.235508
 H    3.120787    1.814655   -0.163640
 H    0.830747    2.719214    0.038930
 H   -0.907424   -2.486274    0.095927
 H    1.499597   -2.218042   -0.121395
 H    4.839877    0.249030   -2.134501
 H    5.220288    0.996047   -0.540792
 H    6.179764   -0.378925   -1.142419
}
set optking {
  frozen_dihedral = ("
    11 10 13 14
    9 10 13 14
    21 14 13 10
  ")
}
set {
  geom_maxiter 400
  g_convergence GAU_LOOSE
  dynamic_level 1
}
memory 16GB
set_num_threads(8)
psi4_io.set_default_path("/scratch/Psi4-ligand")
for _ in range(1):
  try:
    set opt_coordinates both
    optimize('wb97x-d/6-31+G*')
    break
  except OptimizationConvergenceError:
    break
  else:
    try:
      set opt_coordinates cartesian
      optimize('wb97x-d/6-31+G*')
      break
    except OptimizationConvergenceError:
      pass
clean()
--------------------------------------------------------------------------

    Molecular point group: c1
  Charge       = 0
  Multiplicity = 1
  Basis Set: 6-31+G*
    Blend: 6-31+G*
  Basis Set: (6-31+G* AUX)
    Blend: HEAVY-AUG-CC-PVDZ-JKFIT
  @DF-RKS Final Energy: -1188.11509630422097
    Total Energy =                      -1188.1150963042209696
    Molecular point group: c1
  Basis Set: 6-31+G*
    Blend: 6-31+G*
  Basis Set: (6-31+G* AUX)
    Blend: HEAVY-AUG-CC-PVDZ-JKFIT
  Basis Set: 6-31+G*
    Blend: 6-31+G*
  Basis Set: (6-31+G* AUX)
    Blend: HEAVY-AUG-CC-PVDZ-JKFIT
  @DF-RKS Final Energy: -1188.12118198964413
    Total Energy =                      -1188.1211819896443558
  Basis Set: 6-31+G*
    Blend: 6-31+G*
  Basis Set: (6-31+G* AUX)
    Blend: HEAVY-AUG-CC-PVDZ-JKFIT
  Basis Set: 6-31+G*
    Blend: 6-31+G*
  @DF-RKS Final Energy: -1188.12142944077391
    Total Energy =                      -1188.1214294407739089
  @DF-RKS Final Energy: -1188.12145273426972
    Total Energy =                      -1188.1214527342694964
  @DF-RKS Final Energy: -1188.12140216084731
    Total Energy =                      -1188.1214021608473104
  @DF-RKS Final Energy: -1188.12145211724055
    Total Energy =                      -1188.1214521172405512
  @DF-RKS Final Energy: -1188.12107324284671
    Total Energy =                      -1188.1210732428464780
  Basis Set: (6-31+G* AUX)
    Blend: HEAVY-AUG-CC-PVDZ-JKFIT
  Basis Set: 6-31+G*
    Blend: 6-31+G*
  Basis Set: (6-31+G* AUX)
    Blend: HEAVY-AUG-CC-PVDZ-JKFIT
  @DF-RKS Final Energy: -1188.12142421111298
    Total Energy =                      -1188.1214242111129806
  Basis Set: 6-31+G*
    Blend: 6-31+G*
  Basis Set: (6-31+G* AUX)
    Blend: HEAVY-AUG-CC-PVDZ-JKFIT
  Charge       = 0
  Multiplicity = 1
  Basis Set: 6-31+G*
    Blend: 6-31+G*
  Basis Set: (6-31+G* AUX)
    Blend: HEAVY-AUG-CC-PVDZ-JKFIT

    Orbital Energies [Eh]
    ---------------------

    Doubly Occupied:

       1A    -89.082418     2A    -24.871548     3A    -24.871398
       4A    -19.302308     5A    -19.292385     6A    -14.541355
       7A    -10.499813     8A    -10.452961     9A    -10.428074
      10A    -10.406368    11A    -10.385985    12A    -10.355007
      13A    -10.350552    14A    -10.348133    15A    -10.348019
      16A    -10.341531    17A     -8.099991    18A     -6.050706
      19A     -6.046291    20A     -6.040075    21A     -1.390926
      22A     -1.329840    23A     -1.193472    24A     -1.182177
      25A     -1.099399    26A     -1.005949    27A     -0.943558
      28A     -0.906487    29A     -0.888930    30A     -0.868568
      31A     -0.798821    32A     -0.765997    33A     -0.753940
      34A     -0.744974    35A     -0.697195    36A     -0.683522
      37A     -0.670100    38A     -0.646712    39A     -0.630237
      40A     -0.591906    41A     -0.585804    42A     -0.568806
      43A     -0.562828    44A     -0.558027    45A     -0.555159
      46A     -0.554357    47A     -0.549196    48A     -0.535198
      49A     -0.519941    50A     -0.516824    51A     -0.508315
      52A     -0.498361    53A     -0.493877    54A     -0.483436
      55A     -0.475316    56A     -0.443274    57A     -0.430779
      58A     -0.395590    59A     -0.393464    60A     -0.364116
      61A     -0.340839    62A     -0.320529

  @DF-RKS Final Energy: -1188.12148279287135

   => Energetics <=

    Nuclear Repulsion Energy =           1187.7961547624618106
    One-Electron Energy =               -3989.5739183727446289
    Two-Electron Energy =                1703.2260488267854726
    DFT Exchange-Correlation Energy =     -89.5561508526000694
    Empirical Dispersion Energy =          -0.0136171567740826
    VV10 Nonlocal Energy =                  0.0000000000000000
    Total Energy =                      -1188.1214827928713476

  Dipole Moment: [D]
     X:     7.9051      Y:    -0.6873      Z:    -1.6353     Total:     8.1016

    Molecular point group: c1
  Basis Set: 6-31+G*
    Blend: 6-31+G*
  Basis Set: (6-31+G* AUX)
    Blend: HEAVY-AUG-CC-PVDZ-JKFIT

  -Total Gradient:
     Atom            X                  Y                   Z
    ------   -----------------  -----------------  -----------------
       1        0.000055398397    -0.000030456651    -0.000022660634
       2        0.000102778523     0.000031630030     0.000116819918
       3        0.000043414015    -0.000052858614    -0.000168950939
       4        0.000018484842    -0.000024924802     0.000037532686
       5        0.000009091434    -0.000012865173     0.000104257087
       6        0.000201387942    -0.000409574876    -0.000048586482
       7        0.000075548463     0.000166618074     0.000002019233
       8       -0.000122404310    -0.000067014290     0.000016585124
       9        0.000177718113    -0.000176351407     0.000682637171
      10        0.000455077950     0.000607868281     0.001262275648
      11       -0.000227389872    -0.000100746321    -0.001049349821
      12        0.000198279010    -0.000137117943    -0.000012019849
      13        0.000245331280    -0.000451987067    -0.000262850195
      14       -0.001834021942     0.001571011599     0.000005454947
      15       -0.000010073570    -0.000070394666    -0.000037914278
      16       -0.000039581476     0.000321255282    -0.000000957947
      17        0.000065067681    -0.000007249237    -0.000033998491
      18        0.000065679472    -0.000016111664    -0.000025371429
      19        0.000042951554    -0.000023483633     0.000005019687
      20        0.000056785192    -0.000017817539    -0.000014788230
      21        0.001387527344    -0.001565915558    -0.000753122781
      22        0.000011934984    -0.000019727700    -0.000012681048
      23        0.000034536912    -0.000056099517    -0.000006856222

  **** Optimization is complete! (in 3 steps) ****
    Final optimized geometry and variables:
    Molecular point group: c1

    Geometry (in Angstrom), charge = 0, multiplicity = 1:

    N           -0.933990795317    -1.543430276377     0.147929581911
    C           -2.264722346343    -1.260354860604     0.306603216369
    C           -2.637851012625     0.240859651068     0.353845366449
    F           -3.520392623820     0.467959364645    -0.649350293135
    F           -3.268264877916     0.461480286939     1.533053828143
    C           -1.490205382815     1.279529990965     0.222847760876
    C           -0.130599358572     0.756076898463     0.057834550645
    C            0.949195761685     1.636659774099    -0.072778593403
    C            2.242497589091     1.172901435426    -0.226174561063
    C            2.480947083655    -0.210310854341    -0.264566016542
    C            1.410966524568    -1.101449788593    -0.146665780605
    C            0.113488437807    -0.626563284657     0.025893152262
    S            4.086802449067    -0.933444488410    -0.406181705739
    C            5.062253754797     0.343866771975    -1.242429536031
    O           -3.111197964411    -2.118048590417     0.404788103283
    O           -1.775608540711     2.455760780965     0.261344740178
    H            3.056202622642     1.883110118062    -0.310529117135
    H            0.743296694167     2.702218918815    -0.042259821589
    H           -0.715228181875    -2.532220599921     0.122332044145
    H            1.592969730847    -2.171936306788    -0.198872082730
    H            4.701954761244     0.515640656465    -2.259152411538
    H            5.106059585878     1.276839589796    -0.677657094532
    H            6.075115024804    -0.063465812234    -1.298964114110

*** Psi4 exiting successfully. Buy a developer a beer!
