                               Psi4 1.3.2 release

  ==> Input File <==

--------------------------------------------------------------------------
molecule {
0 1
 N   -1.073800   -1.487997    0.150288
 C   -2.377636   -1.143267    0.391295
 C   -2.684518    0.390165    0.437560
 F   -3.622631    0.653286   -0.535382
 F   -3.247604    0.662837    1.664244
 C   -1.480625    1.372755    0.227295
 C   -0.146781    0.780340   -0.025198
 C    0.973032    1.615736   -0.230602
 C    2.243938    1.076026   -0.467551
 C    2.429421   -0.333001   -0.511241
 C    1.309450   -1.166431   -0.295900
 C    0.031687   -0.629937   -0.059292
 S    3.972534   -1.177443   -0.764938
 C    5.253688    0.104360   -0.821985
 O   -3.225965   -2.008689    0.552267
 O   -1.653313    2.587242    0.269847
 H    3.073971    1.765493   -0.614027
 H    0.823102    2.695427   -0.197778
 H   -0.941215   -2.489867    0.130823
 H    1.438155   -2.249982   -0.307305
 H    5.104142    0.729362   -1.707820
 H    5.206219    0.712171    0.086943
 H    6.232779   -0.380645   -0.882506
}
set optking {
  frozen_dihedral = ("
    11 10 13 14
    9 10 13 14
    21 14 13 10
  ")
}
set {
  geom_maxiter 400
  g_convergence GAU_LOOSE
  dynamic_level 1
}
memory 16GB
set_num_threads(8)
psi4_io.set_default_path("/scratch/Psi4-ligand")
for _ in range(1):
  try:
    set opt_coordinates both
    optimize('wb97x-d/6-31+G*')
    break
  except OptimizationConvergenceError:
    break
  else:
    try:
      set opt_coordinates cartesian
      optimize('wb97x-d/6-31+G*')
      break
    except OptimizationConvergenceError:
      pass
clean()
--------------------------------------------------------------------------

    Molecular point group: c1
  Charge       = 0
  Multiplicity = 1
  Basis Set: 6-31+G*
    Blend: 6-31+G*
  Basis Set: (6-31+G* AUX)
    Blend: HEAVY-AUG-CC-PVDZ-JKFIT
  @DF-RKS Final Energy: -1188.11617844038437
    Total Energy =                      -1188.1161784403843740
    Molecular point group: c1
  Basis Set: 6-31+G*
    Blend: 6-31+G*
  Basis Set: (6-31+G* AUX)
    Blend: HEAVY-AUG-CC-PVDZ-JKFIT
  Basis Set: 6-31+G*
    Blend: 6-31+G*
  Basis Set: (6-31+G* AUX)
    Blend: HEAVY-AUG-CC-PVDZ-JKFIT
  @DF-RKS Final Energy: -1188.12235520349782
    Total Energy =                      -1188.1223552034978184
  Basis Set: 6-31+G*
    Blend: 6-31+G*
  Basis Set: (6-31+G* AUX)
    Blend: HEAVY-AUG-CC-PVDZ-JKFIT
  Basis Set: 6-31+G*
    Blend: 6-31+G*
  @DF-RKS Final Energy: -1188.12265688532943
    Total Energy =                      -1188.1226568853296612
  @DF-RKS Final Energy: -1188.12272954757032
    Total Energy =                      -1188.1227295475703158
  @DF-RKS Final Energy: -1188.12259591260340
    Total Energy =                      -1188.1225959126034013
  @DF-RKS Final Energy: -1188.12272992427324
    Total Energy =                      -1188.1227299242734716
  @DF-RKS Final Energy: -1188.12235841535585
    Total Energy =                      -1188.1223584153558477
  @DF-RKS Final Energy: -1188.12270258094281
    Total Energy =                      -1188.1227025809425868
  @DF-RKS Final Energy: -1188.12276057382337
    Total Energy =                      -1188.1227605738233706
  @DF-RKS Final Energy: -1188.12276387125235
    Total Energy =                      -1188.1227638712521184
  @DF-RKS Final Energy: -1188.12279158469642
    Total Energy =                      -1188.1227915846964152
  @DF-RKS Final Energy: -1188.12277415703647
    Total Energy =                      -1188.1227741570364742
  @DF-RKS Final Energy: -1188.12276738890205
    Total Energy =                      -1188.1227673889020480
  @DF-RKS Final Energy: -1188.12279151673602
    Total Energy =                      -1188.1227915167360152
  @DF-RKS Final Energy: -1188.12279053215161
    Total Energy =                      -1188.1227905321516118
  @DF-RKS Final Energy: -1188.12279160613798
    Total Energy =                      -1188.1227916061377528
  @DF-RKS Final Energy: -1188.12289274466025
    Total Energy =                      -1188.1228927446602484
  @DF-RKS Final Energy: -1188.12128002380609
    Total Energy =                      -1188.1212800238060936
  @DF-RKS Final Energy: -1188.12260922545238
    Total Energy =                      -1188.1226092254523792
  Basis Set: (6-31+G* AUX)
    Blend: HEAVY-AUG-CC-PVDZ-JKFIT
  Basis Set: 6-31+G*
    Blend: 6-31+G*
  Basis Set: (6-31+G* AUX)
    Blend: HEAVY-AUG-CC-PVDZ-JKFIT
  @DF-RKS Final Energy: -1188.12289106104936
    Total Energy =                      -1188.1228910610495859
  Basis Set: 6-31+G*
    Blend: 6-31+G*
  Basis Set: (6-31+G* AUX)
    Blend: HEAVY-AUG-CC-PVDZ-JKFIT
  Charge       = 0
  Multiplicity = 1
  Basis Set: 6-31+G*
    Blend: 6-31+G*
  Basis Set: (6-31+G* AUX)
    Blend: HEAVY-AUG-CC-PVDZ-JKFIT

    Orbital Energies [Eh]
    ---------------------

    Doubly Occupied:

       1A    -89.084948     2A    -24.871758     3A    -24.869896
       4A    -19.301053     5A    -19.291819     6A    -14.540452
       7A    -10.498768     8A    -10.452202     9A    -10.426880
      10A    -10.405553    11A    -10.387030    12A    -10.356698
      13A    -10.350303    14A    -10.347418    15A    -10.346514
      16A    -10.340997    17A     -8.102640    18A     -6.053301
      19A     -6.048858    20A     -6.042833    21A     -1.390397
      22A     -1.329273    23A     -1.192817    24A     -1.180930
      25A     -1.098602    26A     -1.006167    27A     -0.945065
      28A     -0.906954    29A     -0.888407    30A     -0.868642
      31A     -0.799917    32A     -0.765262    33A     -0.753471
      34A     -0.745199    35A     -0.696650    36A     -0.682928
      37A     -0.669491    38A     -0.646217    39A     -0.629781
      40A     -0.591886    41A     -0.587286    42A     -0.568228
      43A     -0.562533    44A     -0.557632    45A     -0.556152
      46A     -0.553082    47A     -0.550096    48A     -0.534620
      49A     -0.519556    50A     -0.515711    51A     -0.507543
      52A     -0.498120    53A     -0.490267    54A     -0.487458
      55A     -0.474768    56A     -0.442282    57A     -0.433953
      58A     -0.397880    59A     -0.394313    60A     -0.363135
      61A     -0.340016    62A     -0.319253

  @DF-RKS Final Energy: -1188.12294475829253

   => Energetics <=

    Nuclear Repulsion Energy =           1188.9335078189371870
    One-Electron Energy =               -3991.8490165670255010
    Two-Electron Energy =                1704.3655039738287087
    DFT Exchange-Correlation Energy =     -89.5592002367250473
    Empirical Dispersion Energy =          -0.0137397473076665
    VV10 Nonlocal Energy =                  0.0000000000000000
    Total Energy =                      -1188.1229447582925332

  Dipole Moment: [D]
     X:     8.0596      Y:    -0.8560      Z:    -1.7072     Total:     8.2828

    Molecular point group: c1
  Basis Set: 6-31+G*
    Blend: 6-31+G*
  Basis Set: (6-31+G* AUX)
    Blend: HEAVY-AUG-CC-PVDZ-JKFIT

  -Total Gradient:
     Atom            X                  Y                   Z
    ------   -----------------  -----------------  -----------------
       1        0.000080617664    -0.000121796185    -0.000055289179
       2        0.000165164661     0.000031726448     0.001009986511
       3       -0.000183596131    -0.000263353051    -0.001239231443
       4        0.000289958678     0.000482979989     0.000712037504
       5        0.000056323356    -0.000351503384     0.000410779524
       6        0.000002187007    -0.000252505210    -0.000991695727
       7        0.000203006358    -0.000137230034     0.000675881165
       8        0.000287295080     0.000001863029    -0.000014427861
       9        0.000234461222     0.000132290111     0.001152747015
      10       -0.000940601319    -0.000110552381    -0.003690677056
      11        0.000583916518    -0.000001654344     0.001510348890
      12       -0.000118772390     0.000091863343    -0.000159243283
      13        0.000219171162     0.000043641770     0.000631339434
      14       -0.000214005218    -0.000027389090     0.000427157666
      15       -0.000083491539     0.000060161725    -0.000421759187
      16       -0.000100375009     0.000124016180    -0.000016909851
      17        0.000161093706    -0.000046412903    -0.000016920081
      18        0.000058235575    -0.000024611307     0.000026180425
      19        0.000058851548    -0.000022262350     0.000064722511
      20        0.000007691518    -0.000002569599     0.000040347975
      21        0.000011930208    -0.000001227740    -0.000038798553
      22       -0.000008643585     0.000045390518    -0.000014743949
      23       -0.000099220492    -0.000014887982    -0.000004488137

  **** Optimization is complete! (in 2 steps) ****
    Final optimized geometry and variables:
    Molecular point group: c1

    Geometry (in Angstrom), charge = 0, multiplicity = 1:

    N           -0.964835645231    -1.523397464431     0.244583673584
    C           -2.253764697673    -1.197601046289     0.573936919044
    C           -2.591420993666     0.312263589249     0.559860585683
    F           -3.428436705744     0.520003249481    -0.493520926159
    F           -3.262024907429     0.594051615644     1.695565326554
    C           -1.415422378645     1.314356801421     0.407402005014
    C           -0.106414472591     0.751424845663     0.064641423752
    C            0.979028355080     1.597943536137    -0.184066041894
    C            2.225637550412     1.096635908878    -0.511217962909
    C            2.410031024105    -0.293169768602    -0.596864617528
    C            1.338072766748    -1.152317038345    -0.333485153691
    C            0.085868151672    -0.638639310225    -0.014244425460
    S            3.947687504959    -1.065867614436    -0.971937285944
    C            5.108938095688     0.317777272490    -1.056739545777
    O           -3.096446979884    -2.025907902803     0.829651717727
    O           -1.642789537594     2.494710162831     0.554667823711
    H            3.041616916844     1.782473900249    -0.704251002075
    H            0.814947400725     2.668974382937    -0.114700619878
    H           -0.774552629230    -2.518158075177     0.224426640521
    H            1.484057540305    -2.228826134901    -0.379064375147
    H            4.889151736129     0.983521077358    -1.895011032976
    H            5.133275183455     0.878045525861    -0.118740510915
    H            6.089744727187    -0.134800514835    -1.219490947443

*** Psi4 exiting successfully. Buy a developer a beer!
