                               Psi4 1.3.2 release

  ==> Input File <==

--------------------------------------------------------------------------
molecule {
0 1
 N   -1.067043   -1.479564    0.223183
 C   -2.381202   -1.139762    0.410614
 C   -2.707431    0.390051    0.365432
 F   -3.653208    0.582709   -0.616763
 F   -3.267939    0.729067    1.576585
 C   -1.516933    1.373048    0.091164
 C   -0.169129    0.785930   -0.087276
 C    0.941278    1.621920   -0.334649
 C    2.224367    1.087718   -0.511220
 C    2.435188   -0.317305   -0.441365
 C    1.322309   -1.149659   -0.184820
 C    0.031491   -0.619521   -0.014410
 S    3.989553   -1.169400   -0.603841
 C    5.304922    0.075967   -0.741418
 O   -3.222538   -2.005895    0.601428
 O   -1.709407    2.583916    0.032170
 H    3.038098    1.779377   -0.720775
 H    0.773823    2.698361   -0.386600
 H   -0.921375   -2.478949    0.266096
 H    1.466421   -2.228946   -0.112630
 H    4.999080    1.022605   -0.290852
 H    6.197666   -0.297004   -0.230153
 H    5.530037    0.233280   -1.800865
}
set optking {
  frozen_dihedral = ("
    11 10 13 14
    9 10 13 14
    21 14 13 10
  ")
}
set {
  geom_maxiter 400
  g_convergence GAU_LOOSE
  dynamic_level 1
}
memory 16GB
set_num_threads(8)
psi4_io.set_default_path("/scratch/Psi4-ligand")
for _ in range(1):
  try:
    set opt_coordinates both
    optimize('wb97x-d/6-31+G*')
    break
  except OptimizationConvergenceError:
    break
  else:
    try:
      set opt_coordinates cartesian
      optimize('wb97x-d/6-31+G*')
      break
    except OptimizationConvergenceError:
      pass
clean()
--------------------------------------------------------------------------

    Molecular point group: c1
  Charge       = 0
  Multiplicity = 1
  Basis Set: 6-31+G*
    Blend: 6-31+G*
  Basis Set: (6-31+G* AUX)
    Blend: HEAVY-AUG-CC-PVDZ-JKFIT
  @DF-RKS Final Energy: -1188.11332223783779
    Total Energy =                      -1188.1133222378380196
    Molecular point group: c1
  Basis Set: 6-31+G*
    Blend: 6-31+G*
  Basis Set: (6-31+G* AUX)
    Blend: HEAVY-AUG-CC-PVDZ-JKFIT
  Basis Set: 6-31+G*
    Blend: 6-31+G*
  Basis Set: (6-31+G* AUX)
    Blend: HEAVY-AUG-CC-PVDZ-JKFIT
  @DF-RKS Final Energy: -1188.11896866794837
    Total Energy =                      -1188.1189686679483657
  Basis Set: 6-31+G*
    Blend: 6-31+G*
  Basis Set: (6-31+G* AUX)
    Blend: HEAVY-AUG-CC-PVDZ-JKFIT
  Basis Set: 6-31+G*
    Blend: 6-31+G*
  @DF-RKS Final Energy: -1188.11532169358679
    Total Energy =                      -1188.1153216935867931
  @DF-RKS Final Energy: -1188.11926178696399
    Total Energy =                      -1188.1192617869639889
  @DF-RKS Final Energy: -1188.11941290435220
    Total Energy =                      -1188.1194129043522025
  @DF-RKS Final Energy: -1188.11942110006930
    Total Energy =                      -1188.1194211000690757
  @DF-RKS Final Energy: -1188.11942595113464
    Total Energy =                      -1188.1194259511346445
  @DF-RKS Final Energy: -1188.11950543122634
    Total Energy =                      -1188.1195054312263437
  @DF-RKS Final Energy: -1188.11955702423165
    Total Energy =                      -1188.1195570242318809
  @DF-RKS Final Energy: -1188.11864080511896
    Total Energy =                      -1188.1186408051189574
  @DF-RKS Final Energy: -1188.11955747464071
    Total Energy =                      -1188.1195574746407146
  @DF-RKS Final Energy: -1188.11949137128931
    Total Energy =                      -1188.1194913712890866
  @DF-RKS Final Energy: -1188.11967059471976
    Total Energy =                      -1188.1196705947197643
  @DF-RKS Final Energy: -1188.11975115662403
    Total Energy =                      -1188.1197511566240337
  @DF-RKS Final Energy: -1188.11994347121549
    Total Energy =                      -1188.1199434712157199
  @DF-RKS Final Energy: -1188.12010308446588
    Total Energy =                      -1188.1201030844658817
  @DF-RKS Final Energy: -1188.12025705396172
    Total Energy =                      -1188.1202570539619501
  @DF-RKS Final Energy: -1188.12037385917074
    Total Energy =                      -1188.1203738591705132
  @DF-RKS Final Energy: -1188.12042242830034
    Total Energy =                      -1188.1204224283003441
  Basis Set: (6-31+G* AUX)
    Blend: HEAVY-AUG-CC-PVDZ-JKFIT
  Basis Set: 6-31+G*
    Blend: 6-31+G*
  Basis Set: (6-31+G* AUX)
    Blend: HEAVY-AUG-CC-PVDZ-JKFIT
  @DF-RKS Final Energy: -1188.12040244729292
    Total Energy =                      -1188.1204024472931451
  Basis Set: 6-31+G*
    Blend: 6-31+G*
  Basis Set: (6-31+G* AUX)
    Blend: HEAVY-AUG-CC-PVDZ-JKFIT
  Charge       = 0
  Multiplicity = 1
  Basis Set: 6-31+G*
    Blend: 6-31+G*
  Basis Set: (6-31+G* AUX)
    Blend: HEAVY-AUG-CC-PVDZ-JKFIT

    Orbital Energies [Eh]
    ---------------------

    Doubly Occupied:

       1A    -89.083524     2A    -24.872770     3A    -24.871802
       4A    -19.303341     5A    -19.293747     6A    -14.538894
       7A    -10.498813     8A    -10.452764     9A    -10.427819
      10A    -10.404296    11A    -10.387513    12A    -10.355503
      13A    -10.350267    14A    -10.346384    15A    -10.345708
      16A    -10.340757    17A     -8.101255    18A     -6.051962
      19A     -6.047416    20A     -6.041435    21A     -1.391142
      22A     -1.329940    23A     -1.193542    24A     -1.182336
      25A     -1.097890    26A     -1.005064    27A     -0.943447
      28A     -0.907155    29A     -0.888296    30A     -0.868982
      31A     -0.799369    32A     -0.764994    33A     -0.753670
      34A     -0.744685    35A     -0.696842    36A     -0.680698
      37A     -0.669860    38A     -0.645085    39A     -0.630487
      40A     -0.592471    41A     -0.587811    42A     -0.569835
      43A     -0.563008    44A     -0.558240    45A     -0.557014
      46A     -0.549188    47A     -0.547078    48A     -0.534827
      49A     -0.520348    50A     -0.514785    51A     -0.509725
      52A     -0.499163    53A     -0.490901    54A     -0.488504
      55A     -0.474935    56A     -0.442434    57A     -0.431659
      58A     -0.397924    59A     -0.394834    60A     -0.364130
      61A     -0.339522    62A     -0.317060

  @DF-RKS Final Energy: -1188.12043499232573

   => Energetics <=

    Nuclear Repulsion Energy =           1190.8728009347009902
    One-Electron Energy =               -3995.7393995902448296
    Two-Electron Energy =                1706.3150540212366195
    DFT Exchange-Correlation Energy =     -89.5552784725477835
    Empirical Dispersion Energy =          -0.0136118854707489
    VV10 Nonlocal Energy =                  0.0000000000000000
    Total Energy =                      -1188.1204349923257269

  Dipole Moment: [D]
     X:     7.8876      Y:    -1.2741      Z:    -0.9012     Total:     8.0406

    Molecular point group: c1
  Basis Set: 6-31+G*
    Blend: 6-31+G*
  Basis Set: (6-31+G* AUX)
    Blend: HEAVY-AUG-CC-PVDZ-JKFIT

  -Total Gradient:
     Atom            X                  Y                   Z
    ------   -----------------  -----------------  -----------------
       1       -0.000068175277     0.000077779486     0.000221116724
       2        0.000348434836     0.000330407166    -0.000456773466
       3        0.000463164869    -0.000295010406    -0.001346111068
       4       -0.000703064690     0.000291352952    -0.000143378941
       5        0.000146463962    -0.000079302466     0.001583519171
       6        0.000298626609    -0.000965795254    -0.000160736984
       7       -0.000263563251     0.000291665871     0.000271729337
       8       -0.000190584538     0.000276741655    -0.000068606061
       9        0.000390223618    -0.000496075525     0.002273292141
      10        0.000236070955     0.000389541319    -0.002312423115
      11        0.000029547269    -0.000370962092     0.000622936174
      12        0.000151373129    -0.000273846110    -0.000081049227
      13       -0.000304742966     0.000282878228    -0.000884956775
      14        0.001521150763    -0.001673787269     0.003402128202
      15       -0.000196579676    -0.000324715798     0.000083379668
      16       -0.000043669346     0.000785118428     0.000054680364
      17        0.000175908335     0.000061130778     0.000018372312
      18        0.000096442128    -0.000012135045     0.000025968389
      19       -0.000059341800    -0.000206498859     0.000084888602
      20        0.000052978583     0.000006823988     0.000006355361
      21       -0.001162733930     0.001693333251    -0.003169783871
      22        0.000007524105    -0.000117653933     0.000064097475
      23        0.000017911994    -0.000086537702    -0.000015219776

  **** Optimization is complete! (in 9 steps) ****
    Final optimized geometry and variables:
    Molecular point group: c1

    Geometry (in Angstrom), charge = 0, multiplicity = 1:

    N           -1.138822090062    -1.421161262787    -0.166358901053
    C           -2.432846491480    -0.995337767747    -0.014454147162
    C           -2.565266175169     0.463171399413     0.477628492150
    F           -3.755006042131     0.955180382386     0.122483282924
    F           -2.515344509757     0.396296127378     1.853581736737
    C           -1.420825861853     1.422389716662     0.065809598953
    C           -0.105692877287     0.785435196708    -0.065567118547
    C            1.056790247875     1.558304166247    -0.123851628144
    C            2.305750597775     0.976797837366    -0.260859406561
    C            2.412513706026    -0.418945279508    -0.358295126067
    C            1.253790794904    -1.204723102932    -0.310777399211
    C            0.004092190869    -0.612969060671    -0.170872660212
    S            3.917673186414    -1.328112878649    -0.498981274423
    C            5.250881705497    -0.104856058951    -0.349923497524
    O           -3.391824154183    -1.712316540689    -0.178359665971
    O           -1.639840351157     2.606001696523    -0.060307002460
    H            3.178260687252     1.615887551236    -0.318328217852
    H            0.957039243977     2.637371886226    -0.055794418779
    H           -1.039575458319    -2.402140596468    -0.398817918912
    H            1.332566754193    -2.286988089286    -0.379176703849
    H            4.924112843956     0.783635577551     0.191832514847
    H            6.060493497531    -0.582135286948     0.205115126055
    H            5.610912359840     0.196294787267    -1.336137241923

*** Psi4 exiting successfully. Buy a developer a beer!
