                               Psi4 1.3.2 release

  ==> Input File <==

--------------------------------------------------------------------------
molecule {
0 1
 N   -1.066991   -1.480223    0.238286
 C   -2.379573   -1.129873    0.417882
 C   -2.695599    0.401327    0.355664
 F   -3.662516    0.586933   -0.607100
 F   -3.225838    0.763026    1.573788
 C   -1.504034    1.370327    0.039534
 C   -0.158330    0.773805   -0.122604
 C    0.953916    1.599375   -0.397202
 C    2.237539    1.057898   -0.542325
 C    2.443447   -0.343999   -0.425571
 C    1.327535   -1.168731   -0.159048
 C    0.036788   -0.630545   -0.013225
 S    4.005450   -1.183923   -0.545286
 C    5.270769    0.106182   -0.700911
 O   -3.226386   -1.987920    0.620866
 O   -1.692529    2.579338   -0.056809
 H    3.061494    1.740947   -0.743193
 H    0.788659    2.673467   -0.489507
 H   -0.927151   -2.479672    0.297008
 H    1.470424   -2.245506   -0.054743
 H    5.173665    0.817698    0.125091
 H    6.258918   -0.362643   -0.662445
 H    5.148373    0.620656   -1.659115
}
set optking {
  frozen_dihedral = ("
    11 10 13 14
    9 10 13 14
    21 14 13 10
  ")
}
set {
  geom_maxiter 400
  g_convergence GAU_LOOSE
  dynamic_level 1
}
memory 16GB
set_num_threads(8)
psi4_io.set_default_path("/scratch/Psi4-ligand")
for _ in range(1):
  try:
    set opt_coordinates both
    optimize('wb97x-d/6-31+G*')
    break
  except OptimizationConvergenceError:
    break
  else:
    try:
      set opt_coordinates cartesian
      optimize('wb97x-d/6-31+G*')
      break
    except OptimizationConvergenceError:
      pass
clean()
--------------------------------------------------------------------------

    Molecular point group: c1
  Charge       = 0
  Multiplicity = 1
  Basis Set: 6-31+G*
    Blend: 6-31+G*
  Basis Set: (6-31+G* AUX)
    Blend: HEAVY-AUG-CC-PVDZ-JKFIT
  @DF-RKS Final Energy: -1188.11609372990938
    Total Energy =                      -1188.1160937299093803
    Molecular point group: c1
  Basis Set: 6-31+G*
    Blend: 6-31+G*
  Basis Set: (6-31+G* AUX)
    Blend: HEAVY-AUG-CC-PVDZ-JKFIT
  Basis Set: 6-31+G*
    Blend: 6-31+G*
  Basis Set: (6-31+G* AUX)
    Blend: HEAVY-AUG-CC-PVDZ-JKFIT
  @DF-RKS Final Energy: -1188.12229211823501
    Total Energy =                      -1188.1222921182347818
  Basis Set: 6-31+G*
    Blend: 6-31+G*
  Basis Set: (6-31+G* AUX)
    Blend: HEAVY-AUG-CC-PVDZ-JKFIT
  Basis Set: 6-31+G*
    Blend: 6-31+G*
  @DF-RKS Final Energy: -1188.12260621870200
    Total Energy =                      -1188.1226062187020034
  @DF-RKS Final Energy: -1188.12271930309771
    Total Energy =                      -1188.1227193030977105
  @DF-RKS Final Energy: -1188.12266983397967
    Total Energy =                      -1188.1226698339796712
  @DF-RKS Final Energy: -1188.12272136203478
    Total Energy =                      -1188.1227213620350085
  @DF-RKS Final Energy: -1188.12268227014147
    Total Energy =                      -1188.1226822701412402
  @DF-RKS Final Energy: -1188.12272678808472
    Total Energy =                      -1188.1227267880847194
  @DF-RKS Final Energy: -1188.12276109806203
    Total Energy =                      -1188.1227610980620284
  @DF-RKS Final Energy: -1188.12283432345248
    Total Energy =                      -1188.1228343234524800
  @DF-RKS Final Energy: -1188.12290225036304
    Total Energy =                      -1188.1229022503632677
  @DF-RKS Final Energy: -1188.12295514995435
    Total Energy =                      -1188.1229551499541230
  @DF-RKS Final Energy: -1188.12292717155219
    Total Energy =                      -1188.1229271715524192
  Basis Set: (6-31+G* AUX)
    Blend: HEAVY-AUG-CC-PVDZ-JKFIT
  Basis Set: 6-31+G*
    Blend: 6-31+G*
  Basis Set: (6-31+G* AUX)
    Blend: HEAVY-AUG-CC-PVDZ-JKFIT
  @DF-RKS Final Energy: -1188.12290021950434
    Total Energy =                      -1188.1229002195045723
  Basis Set: 6-31+G*
    Blend: 6-31+G*
  Basis Set: (6-31+G* AUX)
    Blend: HEAVY-AUG-CC-PVDZ-JKFIT
  Charge       = 0
  Multiplicity = 1
  Basis Set: 6-31+G*
    Blend: 6-31+G*
  Basis Set: (6-31+G* AUX)
    Blend: HEAVY-AUG-CC-PVDZ-JKFIT

    Orbital Energies [Eh]
    ---------------------

    Doubly Occupied:

       1A    -89.084901     2A    -24.871613     3A    -24.870503
       4A    -19.301504     5A    -19.291904     6A    -14.540410
       7A    -10.499215     8A    -10.452374     9A    -10.427400
      10A    -10.405505    11A    -10.387128    12A    -10.356518
      13A    -10.350448    14A    -10.347370    15A    -10.346614
      16A    -10.341178    17A     -8.102597    18A     -6.053256
      19A     -6.048817    20A     -6.042788    21A     -1.390412
      22A     -1.329300    23A     -1.192795    24A     -1.181267
      25A     -1.098676    26A     -1.006089    27A     -0.945042
      28A     -0.906919    29A     -0.888319    30A     -0.868574
      31A     -0.799796    32A     -0.765264    33A     -0.753543
      34A     -0.745220    35A     -0.696595    36A     -0.682745
      37A     -0.669440    38A     -0.646223    39A     -0.629791
      40A     -0.592008    41A     -0.587599    42A     -0.568365
      43A     -0.562571    44A     -0.557511    45A     -0.555998
      46A     -0.553134    47A     -0.549478    48A     -0.534807
      49A     -0.519849    50A     -0.515947    51A     -0.507746
      52A     -0.498270    53A     -0.489682    54A     -0.488623
      55A     -0.474875    56A     -0.442105    57A     -0.433878
      58A     -0.397928    59A     -0.394342    60A     -0.363339
      61A     -0.339944    62A     -0.319195

  @DF-RKS Final Energy: -1188.12295696652927

   => Energetics <=

    Nuclear Repulsion Energy =           1188.7843907720287007
    One-Electron Energy =               -3991.5452155083639809
    Two-Electron Energy =                1704.2088929568042204
    DFT Exchange-Correlation Energy =     -89.5572821319548211
    Empirical Dispersion Energy =          -0.0137430550436887
    VV10 Nonlocal Energy =                  0.0000000000000000
    Total Energy =                      -1188.1229569665295003

  Dipole Moment: [D]
     X:     8.1246      Y:    -0.8761      Z:    -1.1139     Total:     8.2473

    Molecular point group: c1
  Basis Set: 6-31+G*
    Blend: 6-31+G*
  Basis Set: (6-31+G* AUX)
    Blend: HEAVY-AUG-CC-PVDZ-JKFIT

  -Total Gradient:
     Atom            X                  Y                   Z
    ------   -----------------  -----------------  -----------------
       1       -0.000157529295    -0.000146700230    -0.000133418839
       2        0.000057309777    -0.000266964422    -0.000537809637
       3        0.000029604224     0.000003718943    -0.000032044369
       4       -0.000025734841    -0.000382485402    -0.000107632666
       5       -0.000367406489     0.000228943296     0.000198798144
       6        0.000113888446     0.000273920941    -0.000111969775
       7       -0.000005339623    -0.000439960395     0.000048329645
       8        0.000861199963     0.000184150786    -0.000108503095
       9       -0.000011380292     0.000764036324     0.001202100407
      10       -0.000772328194    -0.001592516410    -0.002441384405
      11        0.000590910078     0.000538410028     0.000872747522
      12       -0.000476497493     0.000464418585     0.000038227157
      13        0.000396220796     0.000752420287    -0.000123532255
      14        0.000571223260    -0.001655761358     0.001175145162
      15        0.000085662677    -0.000512902724     0.000528850819
      16        0.000353165320     0.000423281351     0.000240917314
      17        0.000339007797    -0.000158511378     0.000077627872
      18       -0.000286334501     0.000047734040    -0.000094587967
      19        0.000173639814     0.000066071854    -0.000030646873
      20        0.000074514843    -0.000020692236     0.000013250310
      21       -0.000890864110     0.000758080951    -0.000783724923
      22        0.000128180090     0.000362196260    -0.000028735484
      23       -0.000106890263    -0.000006694461     0.000066034583

  **** Optimization is complete! (in 2 steps) ****
    Final optimized geometry and variables:
    Molecular point group: c1

    Geometry (in Angstrom), charge = 0, multiplicity = 1:

    N           -0.979699341963    -1.513249864944     0.246895944259
    C           -2.296918385277    -1.182257258740     0.420547217898
    C           -2.612720948525     0.333937535580     0.430069435931
    F           -3.695075945377     0.538847755084    -0.344436845005
    F           -2.939732547724     0.653460516121     1.715552358714
    C           -1.482768557788     1.310161697812    -0.001473313104
    C           -0.135840416908     0.743829298323    -0.125868748782
    C            0.957442207955     1.577629649787    -0.387264402857
    C            2.237304674271     1.070478730580    -0.518078007106
    C            2.448031910405    -0.313935998467    -0.396486585164
    C            1.365528140135    -1.157848364590    -0.131958330164
    C            0.081461647638    -0.638678834593    -0.002470571121
    S            4.025655826024    -1.089384527452    -0.516658499023
    C            5.172073706586     0.299600445584    -0.668777893234
    O           -3.164145822377    -2.007177829264     0.592313360748
    O           -1.759934002067     2.475900494803    -0.176060765271
    H            3.060171420719     1.744492884940    -0.723379789892
    H            0.769806810090     2.642724530116    -0.485558723500
    H           -0.786453345426    -2.506868170921     0.283924025848
    H            1.528205700879    -2.227615649279    -0.024388369011
    H            5.042580677096     1.015822005958     0.146449327307
    H            6.174387437521    -0.129593764638    -0.606399491642
    H            5.066233863432     0.806405057055    -1.631309238675

*** Psi4 exiting successfully. Buy a developer a beer!
