                               Psi4 1.3.2 release

  ==> Input File <==

--------------------------------------------------------------------------
molecule {
0 1
 N   -0.389452   -1.137136    0.684813
 C   -1.732451   -1.138128    0.955508
 C   -2.522727    0.137540    0.513162
 F   -3.513008   -0.269296   -0.352635
 F   -3.120888    0.663143    1.636466
 C   -1.709688    1.283011   -0.183948
 C   -0.256542    1.072674   -0.378888
 C    0.527033    2.070346   -0.997827
 C    1.902181    1.889750   -1.189507
 C    2.544211    0.692287   -0.774817
 C    1.756069   -0.301339   -0.144139
 C    0.374179   -0.125326    0.054372
 S    4.299377    0.454908   -0.990084
 C    4.732498   -1.226097   -0.457713
 O   -2.249288   -2.096544    1.511601
 O   -2.270849    2.311117   -0.550429
 H    2.466280    2.693802   -1.663033
 H    0.034136    2.986991   -1.323248
 H    0.061833   -1.986706    0.995077
 H    2.219584   -1.220968    0.208106
 H    4.558300   -1.325817    0.617934
 H    4.134158   -1.954086   -1.014063
 H    5.793090   -1.396192   -0.667671
}
set optking {
  frozen_dihedral = ("
    11 10 13 14
    9 10 13 14
    21 14 13 10
  ")
}
set {
  geom_maxiter 400
  g_convergence GAU_LOOSE
  dynamic_level 1
}
memory 16GB
set_num_threads(8)
psi4_io.set_default_path("/scratch/Psi4-ligand")
for _ in range(1):
  try:
    set opt_coordinates both
    optimize('wb97x-d/6-31+G*')
    break
  except OptimizationConvergenceError:
    break
  else:
    try:
      set opt_coordinates cartesian
      optimize('wb97x-d/6-31+G*')
      break
    except OptimizationConvergenceError:
      pass
clean()
--------------------------------------------------------------------------

    Molecular point group: c1
  Charge       = 0
  Multiplicity = 1
  Basis Set: 6-31+G*
    Blend: 6-31+G*
  Basis Set: (6-31+G* AUX)
    Blend: HEAVY-AUG-CC-PVDZ-JKFIT
  @DF-RKS Final Energy: -1188.11365387687397
    Total Energy =                      -1188.1136538768739683
    Molecular point group: c1
  Basis Set: 6-31+G*
    Blend: 6-31+G*
  Basis Set: (6-31+G* AUX)
    Blend: HEAVY-AUG-CC-PVDZ-JKFIT
  Basis Set: 6-31+G*
    Blend: 6-31+G*
  Basis Set: (6-31+G* AUX)
    Blend: HEAVY-AUG-CC-PVDZ-JKFIT
  @DF-RKS Final Energy: -1188.12000382093106
    Total Energy =                      -1188.1200038209310605
  Basis Set: 6-31+G*
    Blend: 6-31+G*
  Basis Set: (6-31+G* AUX)
    Blend: HEAVY-AUG-CC-PVDZ-JKFIT
  Basis Set: 6-31+G*
    Blend: 6-31+G*
  @DF-RKS Final Energy: -1188.12240582006166
    Total Energy =                      -1188.1224058200616582
  @DF-RKS Final Energy: -1188.12265022983888
    Total Energy =                      -1188.1226502298391097
  @DF-RKS Final Energy: -1188.12264666088822
    Total Energy =                      -1188.1226466608879946
  @DF-RKS Final Energy: -1188.12265052369548
    Total Energy =                      -1188.1226505236954836
  @DF-RKS Final Energy: -1188.12265010492001
    Total Energy =                      -1188.1226501049200124
  @DF-RKS Final Energy: -1188.12265882419933
    Total Energy =                      -1188.1226588241993340
  Basis Set: (6-31+G* AUX)
    Blend: HEAVY-AUG-CC-PVDZ-JKFIT
  Basis Set: 6-31+G*
    Blend: 6-31+G*
  Basis Set: (6-31+G* AUX)
    Blend: HEAVY-AUG-CC-PVDZ-JKFIT
  @DF-RKS Final Energy: -1188.12263940532989
    Total Energy =                      -1188.1226394053298918
  Basis Set: 6-31+G*
    Blend: 6-31+G*
  Basis Set: (6-31+G* AUX)
    Blend: HEAVY-AUG-CC-PVDZ-JKFIT
  Charge       = 0
  Multiplicity = 1
  Basis Set: 6-31+G*
    Blend: 6-31+G*
  Basis Set: (6-31+G* AUX)
    Blend: HEAVY-AUG-CC-PVDZ-JKFIT

    Orbital Energies [Eh]
    ---------------------

    Doubly Occupied:

       1A    -89.086285     2A    -24.871426     3A    -24.871156
       4A    -19.300568     5A    -19.293344     6A    -14.542467
       7A    -10.499604     8A    -10.453645     9A    -10.426707
      10A    -10.407368    11A    -10.387617    12A    -10.359360
      13A    -10.349932    14A    -10.348248    15A    -10.346300
      16A    -10.339192    17A     -8.103848    18A     -6.054534
      19A     -6.050056    20A     -6.044036    21A     -1.390677
      22A     -1.329643    23A     -1.194293    24A     -1.180474
      25A     -1.100292    26A     -1.006230    27A     -0.945877
      28A     -0.905671    29A     -0.891755    30A     -0.867512
      31A     -0.800354    32A     -0.771315    33A     -0.754330
      34A     -0.741242    35A     -0.697265    36A     -0.682329
      37A     -0.669911    38A     -0.648841    39A     -0.629350
      40A     -0.592906    41A     -0.585969    42A     -0.569573
      43A     -0.564659    44A     -0.560968    45A     -0.556273
      46A     -0.551917    47A     -0.551024    48A     -0.533953
      49A     -0.526246    50A     -0.516701    51A     -0.507743
      52A     -0.503018    53A     -0.488437    54A     -0.481505
      55A     -0.470145    56A     -0.444302    57A     -0.438799
      58A     -0.395556    59A     -0.395018    60A     -0.363392
      61A     -0.344309    62A     -0.317919

  @DF-RKS Final Energy: -1188.12266163727190

   => Energetics <=

    Nuclear Repulsion Energy =           1191.3592248037236914
    One-Electron Energy =               -3996.6184094011250636
    Two-Electron Energy =                1706.7069519976867014
    DFT Exchange-Correlation Energy =     -89.5566583240729983
    Empirical Dispersion Energy =          -0.0137707134844235
    VV10 Nonlocal Energy =                  0.0000000000000000
    Total Energy =                      -1188.1226616372719036

  Dipole Moment: [D]
     X:     7.7865      Y:    -1.9846      Z:    -0.8232     Total:     8.0775

    Molecular point group: c1
  Basis Set: 6-31+G*
    Blend: 6-31+G*
  Basis Set: (6-31+G* AUX)
    Blend: HEAVY-AUG-CC-PVDZ-JKFIT

  -Total Gradient:
     Atom            X                  Y                   Z
    ------   -----------------  -----------------  -----------------
       1        0.000082588915     0.000091784263    -0.000076960597
       2        0.000209934850     0.000237242982     0.000012274646
       3        0.000002326718    -0.000240400766    -0.000335725619
       4       -0.000032155786    -0.000054555751    -0.000023918861
       5        0.000045538152     0.000088221198     0.000166520369
       6        0.000274206194     0.000012760134     0.000613583951
       7        0.000146161115     0.000066215572    -0.000231859255
       8        0.000083014582    -0.000084336315     0.000036047403
       9        0.000192408680     0.000245827028     0.000592359343
      10       -0.000328490895    -0.000847473673    -0.002347377104
      11       -0.000356488633     0.000330120736     0.001122750041
      12        0.000437910071    -0.000231887359    -0.000059166530
      13        0.000281061445     0.000758859180     0.000737764078
      14        0.000032454221    -0.000348599078    -0.000161291627
      15       -0.000231739143    -0.000324054977     0.000146457227
      16       -0.000108299310     0.000182993518    -0.000374186145
      17        0.000061454425     0.000134415156    -0.000086911015
      18        0.000097082960     0.000101131412    -0.000089263087
      19        0.000083507575    -0.000105120217     0.000048604330
      20       -0.000078338132    -0.000038929355     0.000070095943
      21        0.000237071320     0.000058765426     0.000150559908
      22        0.000047541212    -0.000114778859    -0.000090734759
      23       -0.000042039674     0.000000626931     0.000023305119

  **** Optimization is complete! (in 3 steps) ****
    Final optimized geometry and variables:
    Molecular point group: c1

    Geometry (in Angstrom), charge = 0, multiplicity = 1:

    N           -0.424049775192    -1.285150966789     0.936732660734
    C           -1.758123490993    -1.240971583325     1.244471652943
    C           -2.547246433686    -0.042194329814     0.665393655953
    F           -3.539134162894    -0.551554649649    -0.105651568239
    F           -3.112420109399     0.608856464670     1.710791477752
    C           -1.767334893388     0.998685576504    -0.184041662564
    C           -0.336793955437     0.756478700273    -0.388931437733
    C            0.427845308741     1.654121011658    -1.150106579389
    C            1.773692717791     1.447411920506    -1.358517561526
    C            2.401890245044     0.314430146225    -0.803040313513
    C            1.657917356712    -0.581721550487    -0.035612379399
    C            0.293362078820    -0.365520414902     0.166492730234
    S            4.129994645964     0.161947726462    -1.101724518445
    C            4.561215359926    -1.433257461452    -0.365698518464
    O           -2.303142926144    -2.081048344933     1.922372130815
    O           -2.378038201300     1.943435599859    -0.633065717530
    H            2.349304632734     2.150566654894    -1.952956564161
    H           -0.072304526681     2.519724205236    -1.573531569802
    H            0.068624898680    -2.080843738418     1.324488979756
    H            2.121861274427    -1.454655519595     0.411892261510
    H            4.432346518602    -1.429509367088     0.720091486823
    H            3.994871973775    -2.251547225314    -0.818573961565
    H            5.620838770042    -1.580267956506    -0.587116378636

*** Psi4 exiting successfully. Buy a developer a beer!
