                               Psi4 1.3.2 release

  ==> Input File <==

--------------------------------------------------------------------------
molecule {
0 1
 N   -1.138822   -1.421161   -0.166359
 C   -2.432846   -0.995338   -0.014454
 C   -2.565266    0.463171    0.477628
 F   -3.755006    0.955180    0.122483
 F   -2.515345    0.396296    1.853582
 C   -1.420826    1.422390    0.065810
 C   -0.105693    0.785435   -0.065567
 C    1.056790    1.558304   -0.123852
 C    2.305751    0.976798   -0.260859
 C    2.412514   -0.418945   -0.358295
 C    1.253791   -1.204723   -0.310777
 C    0.004092   -0.612969   -0.170873
 S    3.917673   -1.328113   -0.498981
 C    5.250882   -0.104856   -0.349923
 O   -3.391824   -1.712317   -0.178360
 O   -1.639840    2.606002   -0.060307
 H    3.178261    1.615888   -0.318328
 H    0.957039    2.637372   -0.055794
 H   -1.039575   -2.402141   -0.398818
 H    1.332567   -2.286988   -0.379177
 H    4.924113    0.783636    0.191833
 H    6.060493   -0.582135    0.205115
 H    5.610912    0.196295   -1.336137
}
memory 16GB
set_num_threads(8)
psi4_io.set_default_path("/scratch/Psi4-ligand")
set freeze_core True
E, wfn = energy('wb97x-d/6-311++g**',return_wfn=True)
oeprop(wfn,"WIBERG_LOWDIN_INDICES")
clean()
--------------------------------------------------------------------------

    Molecular point group: c1

    Geometry (in Angstrom), charge = 0, multiplicity = 1:

       Center              X                  Y                   Z               Mass
    ------------   -----------------  -----------------  -----------------  -----------------
         N           -1.138822036610    -1.421160951622    -0.166359054673    14.003074004430
         C           -2.432846036610    -0.995337951622    -0.014454054673    12.000000000000
         C           -2.565266036610     0.463171048378     0.477627945327    12.000000000000
         F           -3.755006036610     0.955180048378     0.122482945327    18.998403162730
         F           -2.515345036610     0.396296048378     1.853581945327    18.998403162730
         C           -1.420826036610     1.422390048378     0.065809945327    12.000000000000
         C           -0.105693036610     0.785435048378    -0.065567054673    12.000000000000
         C            1.056789963390     1.558304048378    -0.123852054673    12.000000000000
         C            2.305750963390     0.976798048378    -0.260859054673    12.000000000000
         C            2.412513963390    -0.418944951622    -0.358295054673    12.000000000000
         C            1.253790963390    -1.204722951622    -0.310777054673    12.000000000000
         C            0.004091963390    -0.612968951622    -0.170873054673    12.000000000000
         S            3.917672963390    -1.328112951622    -0.498981054673    31.972071174400
         C            5.250881963390    -0.104855951622    -0.349923054673    12.000000000000
         O           -3.391824036610    -1.712316951622    -0.178360054673    15.994914619570
         O           -1.639840036610     2.606002048378    -0.060307054673    15.994914619570
         H            3.178260963390     1.615888048378    -0.318328054673     1.007825032230
         H            0.957038963390     2.637372048378    -0.055794054673     1.007825032230
         H           -1.039575036610    -2.402140951622    -0.398818054673     1.007825032230
         H            1.332566963390    -2.286987951622    -0.379177054673     1.007825032230
         H            4.924112963390     0.783636048378     0.191832945327     1.007825032230
         H            6.060492963390    -0.582134951622     0.205114945327     1.007825032230
         H            5.610911963390     0.196295048378    -1.336137054673     1.007825032230

  Charge       = 0
  Multiplicity = 1
  Basis Set: 6-311++G**
    Blend: 6-311++G**
  Basis Set: (6-311++G** AUX)
    Blend: AUG-CC-PVTZ-JKFIT

    Orbital Energies [Eh]
    ---------------------

    Doubly Occupied:

       1A    -89.052799     2A    -24.841011     3A    -24.840211
       4A    -19.271558     5A    -19.262325     6A    -14.515211
       7A    -10.484576     8A    -10.436888     9A    -10.411939
      10A    -10.389655    11A    -10.372331    12A    -10.340594
      13A    -10.334507    14A    -10.330450    15A    -10.329774
      16A    -10.324055    17A     -8.093411    18A     -6.042918
      19A     -6.038410    20A     -6.032574    21A     -1.390311
      22A     -1.328795    23A     -1.193100    24A     -1.181569
      25A     -1.097764    26A     -1.005680    27A     -0.943729
      28A     -0.907225    29A     -0.888499    30A     -0.869002
      31A     -0.799589    32A     -0.765505    33A     -0.753816
      34A     -0.745255    35A     -0.697605    36A     -0.681838
      37A     -0.670521    38A     -0.645672    39A     -0.630984
      40A     -0.593641    41A     -0.588878    42A     -0.571126
      43A     -0.564251    44A     -0.559645    45A     -0.557397
      46A     -0.549676    47A     -0.546965    48A     -0.535505
      49A     -0.520398    50A     -0.515144    51A     -0.510619
      52A     -0.499843    53A     -0.491795    54A     -0.489217
      55A     -0.475791    56A     -0.443787    57A     -0.432422
      58A     -0.399260    59A     -0.395976    60A     -0.365211
      61A     -0.341290    62A     -0.318149

  @DF-RKS Final Energy: -1188.33213544074306

   => Energetics <=

    Nuclear Repulsion Energy =           1190.8727693310431732
    One-Electron Energy =               -3996.7228025707427150
    Two-Electron Energy =                1707.2686049603635183
    DFT Exchange-Correlation Energy =     -89.7370952759722655
    Empirical Dispersion Energy =          -0.0136118854343583
    VV10 Nonlocal Energy =                  0.0000000000000000
    Total Energy =                      -1188.3321354407428316

  Dipole Moment: [D]
     X:     7.9177      Y:    -1.3385      Z:    -0.9305     Total:     8.0838

*** Psi4 exiting successfully. Buy a developer a beer!
