                               Psi4 1.3.2 release

  ==> Input File <==

--------------------------------------------------------------------------
molecule {
0 1
 N   -1.071580   -1.484406    0.163644
 C   -2.379234   -1.146555    0.393066
 C   -2.694841    0.385428    0.429305
 F   -3.666387    0.630102   -0.515210
 F   -3.218975    0.669403    1.670285
 C   -1.504779    1.373742    0.169308
 C   -0.163603    0.787913   -0.058061
 C    0.949195    1.627305   -0.283537
 C    2.228808    1.093881   -0.487345
 C    2.428953   -0.314447   -0.491633
 C    1.312390   -1.150671   -0.267057
 C    0.028100   -0.620645   -0.053652
 S    3.975132   -1.168968   -0.705231
 C    5.290557    0.078226   -0.789526
 O   -3.222584   -2.016010    0.558949
 O   -1.691328    2.586908    0.166106
 H    3.054259    1.790385   -0.620763
 H    0.788729    2.706051   -0.286534
 H   -0.931680   -2.485467    0.155230
 H    1.448866   -2.233299   -0.252247
 H    4.942679    0.971303   -1.313977
 H    5.588584    0.345890    0.229013
 H    6.146770   -0.348127   -1.321098
}
set optking {
  frozen_dihedral = ("
    11 10 13 14
    9 10 13 14
    21 14 13 10
  ")
}
set {
  geom_maxiter 400
  g_convergence GAU_LOOSE
  dynamic_level 1
}
memory 16GB
set_num_threads(8)
psi4_io.set_default_path("/scratch/Psi4-ligand")
for _ in range(1):
  try:
    set opt_coordinates both
    optimize('wb97x-d/6-31+G*')
    break
  except OptimizationConvergenceError:
    break
  else:
    try:
      set opt_coordinates cartesian
      optimize('wb97x-d/6-31+G*')
      break
    except OptimizationConvergenceError:
      pass
clean()
--------------------------------------------------------------------------

    Molecular point group: c1
  Charge       = 0
  Multiplicity = 1
  Basis Set: 6-31+G*
    Blend: 6-31+G*
  Basis Set: (6-31+G* AUX)
    Blend: HEAVY-AUG-CC-PVDZ-JKFIT
  @DF-RKS Final Energy: -1188.11398983558183
    Total Energy =                      -1188.1139898355816058
    Molecular point group: c1
  Basis Set: 6-31+G*
    Blend: 6-31+G*
  Basis Set: (6-31+G* AUX)
    Blend: HEAVY-AUG-CC-PVDZ-JKFIT
  Basis Set: 6-31+G*
    Blend: 6-31+G*
  Basis Set: (6-31+G* AUX)
    Blend: HEAVY-AUG-CC-PVDZ-JKFIT
  @DF-RKS Final Energy: -1187.22833751811459
    Total Energy =                      -1187.2283375181145857
  Basis Set: 6-31+G*
    Blend: 6-31+G*
  Basis Set: (6-31+G* AUX)
    Blend: HEAVY-AUG-CC-PVDZ-JKFIT
  Basis Set: 6-31+G*
    Blend: 6-31+G*
  @DF-RKS Final Energy: -1187.47894102965120
    Total Energy =                      -1187.4789410296511960
  @DF-RKS Final Energy: -1187.87765521932079
    Total Energy =                      -1187.8776552193207863
  @DF-RKS Final Energy: -1188.06473090586110
    Total Energy =                      -1188.0647309058610972
  @DF-RKS Final Energy: -1188.11601972770177
    Total Energy =                      -1188.1160197277017687
  @DF-RKS Final Energy: -1188.11949810049282
    Total Energy =                      -1188.1194981004928195
  @DF-RKS Final Energy: -1188.12016369056528
    Total Energy =                      -1188.1201636905652776
  @DF-RKS Final Energy: -1188.12008382253794
    Total Energy =                      -1188.1200838225379357
  @DF-RKS Final Energy: -1188.12016386154278
    Total Energy =                      -1188.1201638615427782
  @DF-RKS Final Energy: -1188.12013732023138
    Total Energy =                      -1188.1201373202316063
  @DF-RKS Final Energy: -1188.12021507030408
    Total Energy =                      -1188.1202150703043117
  @DF-RKS Final Energy: -1188.12022255139823
    Total Energy =                      -1188.1202225513982285
  @DF-RKS Final Energy: -1188.12028299041094
    Total Energy =                      -1188.1202829904107148
  @DF-RKS Final Energy: -1188.12032028052590
    Total Energy =                      -1188.1203202805259025
  @DF-RKS Final Energy: -1188.12039652031217
    Total Energy =                      -1188.1203965203121697
  @DF-RKS Final Energy: -1188.12043889473648
    Total Energy =                      -1188.1204388947364805
  @DF-RKS Final Energy: -1188.12048296522380
    Total Energy =                      -1188.1204829652238004
  @DF-RKS Final Energy: -1188.11856039936447
    Total Energy =                      -1188.1185603993642417
  @DF-RKS Final Energy: -1188.12005125266501
    Total Energy =                      -1188.1200512526647799
  Basis Set: (6-31+G* AUX)
    Blend: HEAVY-AUG-CC-PVDZ-JKFIT
  Basis Set: 6-31+G*
    Blend: 6-31+G*
  Basis Set: (6-31+G* AUX)
    Blend: HEAVY-AUG-CC-PVDZ-JKFIT
  @DF-RKS Final Energy: -1188.12048234426447
    Total Energy =                      -1188.1204823442642464
  Basis Set: 6-31+G*
    Blend: 6-31+G*
  Basis Set: (6-31+G* AUX)
    Blend: HEAVY-AUG-CC-PVDZ-JKFIT
  Charge       = 0
  Multiplicity = 1
  Basis Set: 6-31+G*
    Blend: 6-31+G*
  Basis Set: (6-31+G* AUX)
    Blend: HEAVY-AUG-CC-PVDZ-JKFIT

    Orbital Energies [Eh]
    ---------------------

    Doubly Occupied:

       1A    -89.084595     2A    -24.872290     3A    -24.870184
       4A    -19.301518     5A    -19.292129     6A    -14.540302
       7A    -10.498960     8A    -10.452490     9A    -10.427137
      10A    -10.405581    11A    -10.388195    12A    -10.356323
      13A    -10.350488    14A    -10.347494    15A    -10.346403
      16A    -10.341357    17A     -8.102292    18A     -6.053002
      19A     -6.048461    20A     -6.042468    21A     -1.390727
      22A     -1.329715    23A     -1.192667    24A     -1.181476
      25A     -1.098074    26A     -1.005726    27A     -0.944020
      28A     -0.906323    29A     -0.888608    30A     -0.868679
      31A     -0.800055    32A     -0.765137    33A     -0.753434
      34A     -0.745234    35A     -0.696707    36A     -0.682673
      37A     -0.669681    38A     -0.646131    39A     -0.630267
      40A     -0.592409    41A     -0.587692    42A     -0.568201
      43A     -0.562878    44A     -0.557442    45A     -0.556627
      46A     -0.551965    47A     -0.547245    48A     -0.534644
      49A     -0.520436    50A     -0.515710    51A     -0.508072
      52A     -0.498495    53A     -0.490005    54A     -0.488826
      55A     -0.474775    56A     -0.442395    57A     -0.432716
      58A     -0.397848    59A     -0.394275    60A     -0.363259
      61A     -0.340007    62A     -0.318114

  @DF-RKS Final Energy: -1188.12064934990394

   => Energetics <=

    Nuclear Repulsion Energy =           1188.0488533940190337
    One-Electron Energy =               -3990.0801737396141107
    Two-Electron Energy =                1703.4788296389997413
    DFT Exchange-Correlation Energy =     -89.5546052389054523
    Empirical Dispersion Energy =          -0.0135534044029543
    VV10 Nonlocal Energy =                  0.0000000000000000
    Total Energy =                      -1188.1206493499039425

  Dipole Moment: [D]
     X:     8.2452      Y:    -0.4559      Z:    -0.3351     Total:     8.2646

    Molecular point group: c1
  Basis Set: 6-31+G*
    Blend: 6-31+G*
  Basis Set: (6-31+G* AUX)
    Blend: HEAVY-AUG-CC-PVDZ-JKFIT

  -Total Gradient:
     Atom            X                  Y                   Z
    ------   -----------------  -----------------  -----------------
       1        0.000139736985     0.000183340017    -0.000919692214
       2       -0.000030858884    -0.001073244779     0.001533398463
       3       -0.000220951548    -0.000614765631     0.000949495334
       4       -0.000414584730     0.000978057144    -0.000320856082
       5        0.000373992014     0.000276082618    -0.001464600430
       6       -0.000152485472     0.001009237973     0.000188769297
       7        0.000391116008    -0.000357208624    -0.000101565473
       8        0.000281343882     0.000231228806     0.000022696605
       9        0.000082082533    -0.000059794475     0.000331782895
      10       -0.000084989674     0.002699575370    -0.004789387041
      11        0.000258433794    -0.001308295819     0.001892345390
      12       -0.000093201022     0.000528309010    -0.000154654058
      13       -0.000179044228    -0.001324066766     0.003005040104
      14        0.001534483495    -0.000502052056    -0.005352942447
      15       -0.000364195417    -0.000503794942    -0.000405464904
      16        0.000176517523    -0.000585153282     0.000205005670
      17        0.000227258825     0.000098244673     0.000097597156
      18        0.000052038798     0.000313926409     0.000144291770
      19       -0.000103569990    -0.000371400481    -0.000081598621
      20        0.000128324892    -0.000370329674    -0.000222416274
      21       -0.001607441625    -0.000090364010     0.004409230023
      22        0.000277680152     0.000528058487     0.000325066409
      23        0.000212787758    -0.000002383988     0.000382622058

  **** Optimization is complete! (in 2 steps) ****
    Final optimized geometry and variables:
    Molecular point group: c1

    Geometry (in Angstrom), charge = 0, multiplicity = 1:

    N           -0.953256408882    -1.270272552965    -0.886240883353
    C           -2.293825607934    -1.047754173930    -0.708593830321
    C           -2.657395971584     0.137337871475     0.219068411838
    F           -3.681178847811     0.815462605074    -0.330664657608
    F           -3.088341859933    -0.418565846210     1.388377689096
    C           -1.524339386538     1.132142146694     0.591264310574
    C           -0.151934004315     0.687487808251     0.327056616494
    C            0.932759102537     1.440491139060     0.788476085624
    C            2.237836919485     1.046771256016     0.553768779271
    C            2.485779291485    -0.125672896467    -0.178351840354
    C            1.409402118770    -0.896208753246    -0.634354455223
    C            0.100054270890    -0.491517453903    -0.395584984072
    S            4.083345519392    -0.773392542754    -0.552296905731
    C            5.258006726974     0.304774010474     0.307166513272
    O           -3.147641464551    -1.742005873478    -1.209883497553
    O           -1.822627422808     2.183156477729     1.112194064545
    H            3.047541858771     1.647504796538     0.949085884135
    H            0.722555726907     2.346792651184     1.349113070900
    H           -0.733651560878    -2.082714146282    -1.450583855842
    H            1.598120183854    -1.815199190197    -1.185239052064
    H            4.941169927312     1.349437147414     0.313274102328
    H            5.401872654880    -0.017955537977     1.341799411814
    H            6.205130649969     0.223114948690    -0.229104985568

*** Psi4 exiting successfully. Buy a developer a beer!
