                               Psi4 1.3.2 release

  ==> Input File <==

--------------------------------------------------------------------------
molecule {
0 1
 N   -1.004726   -1.480652    0.299578
 C   -2.319081   -1.122853    0.442739
 C   -2.619989    0.393100    0.363751
 F   -3.618380    0.567753   -0.528852
 F   -3.072990    0.767865    1.590346
 C   -1.452359    1.346616   -0.008314
 C   -0.116774    0.751543   -0.115026
 C    0.995170    1.559490   -0.373818
 C    2.266359    1.026165   -0.485453
 C    2.451184   -0.359032   -0.348880
 C    1.349891   -1.177533   -0.073234
 C    0.075011   -0.632634    0.036164
 S    4.004170   -1.186610   -0.459893
 C    5.227578    0.136766   -0.632561
 O   -3.201354   -1.925964    0.638287
 O   -1.700040    2.520701   -0.170881
 H    3.101341    1.689933   -0.671359
 H    0.835185    2.628140   -0.481178
 H   -0.829178   -2.475398    0.376379
 H    1.491335   -2.248559    0.052130
 H    5.515085    0.548009    0.337531
 H    6.106484   -0.342044   -1.071931
 H    4.900968    0.919430   -1.318361
}
memory 16GB
set_num_threads(8)
psi4_io.set_default_path("/scratch/Psi4-ligand")
set freeze_core True
E, wfn = energy('wb97x-d/6-311++g**',return_wfn=True)
oeprop(wfn,"WIBERG_LOWDIN_INDICES")
clean()
--------------------------------------------------------------------------

    Molecular point group: c1

    Geometry (in Angstrom), charge = 0, multiplicity = 1:

       Center              X                  Y                   Z               Mass
    ------------   -----------------  -----------------  -----------------  -----------------
         N           -1.004726026383    -1.480651979677     0.299578042213    14.003074004430
         C           -2.319081026383    -1.122852979677     0.442739042213    12.000000000000
         C           -2.619989026383     0.393100020323     0.363751042213    12.000000000000
         F           -3.618380026383     0.567753020323    -0.528851957787    18.998403162730
         F           -3.072990026383     0.767865020323     1.590346042213    18.998403162730
         C           -1.452359026383     1.346616020323    -0.008313957787    12.000000000000
         C           -0.116774026383     0.751543020323    -0.115025957787    12.000000000000
         C            0.995169973617     1.559490020323    -0.373817957787    12.000000000000
         C            2.266358973617     1.026165020323    -0.485452957787    12.000000000000
         C            2.451183973617    -0.359031979677    -0.348879957787    12.000000000000
         C            1.349890973617    -1.177532979677    -0.073233957787    12.000000000000
         C            0.075010973617    -0.632633979677     0.036164042213    12.000000000000
         S            4.004169973617    -1.186609979677    -0.459892957787    31.972071174400
         C            5.227577973617     0.136766020323    -0.632560957787    12.000000000000
         O           -3.201354026383    -1.925963979677     0.638287042213    15.994914619570
         O           -1.700040026383     2.520701020323    -0.170880957787    15.994914619570
         H            3.101340973617     1.689933020323    -0.671358957787     1.007825032230
         H            0.835184973617     2.628140020323    -0.481177957787     1.007825032230
         H           -0.829178026383    -2.475397979677     0.376379042213     1.007825032230
         H            1.491334973617    -2.248558979677     0.052130042213     1.007825032230
         H            5.515084973617     0.548009020323     0.337531042213     1.007825032230
         H            6.106483973617    -0.342043979677    -1.071930957787     1.007825032230
         H            4.900967973617     0.919430020323    -1.318360957787     1.007825032230

  Charge       = 0
  Multiplicity = 1
  Basis Set: 6-311++G**
    Blend: 6-311++G**
  Basis Set: (6-311++G** AUX)
    Blend: AUG-CC-PVTZ-JKFIT

    Orbital Energies [Eh]
    ---------------------

    Doubly Occupied:

       1A    -89.054116     2A    -24.839326     3A    -24.838512
       4A    -19.269223     5A    -19.260201     6A    -14.516793
       7A    -10.484655     8A    -10.436303     9A    -10.411114
      10A    -10.390948    11A    -10.372662    12A    -10.341638
      13A    -10.334669    14A    -10.331238    15A    -10.330853
      16A    -10.324422    17A     -8.094728    18A     -6.044222
      19A     -6.039744    20A     -6.033893    21A     -1.389230
      22A     -1.327825    23A     -1.192225    24A     -1.180179
      25A     -1.098312    26A     -1.006548    27A     -0.944706
      28A     -0.906596    29A     -0.888727    30A     -0.868835
      31A     -0.800454    32A     -0.765722    33A     -0.753482
      34A     -0.745839    35A     -0.697391    36A     -0.684090
      37A     -0.669865    38A     -0.646842    39A     -0.630458
      40A     -0.593257    41A     -0.588155    42A     -0.569189
      43A     -0.563845    44A     -0.557942    45A     -0.556776
      46A     -0.553963    47A     -0.550114    48A     -0.534856
      49A     -0.518696    50A     -0.516342    51A     -0.508276
      52A     -0.498865    53A     -0.490972    54A     -0.488545
      55A     -0.475582    56A     -0.443743    57A     -0.433988
      58A     -0.399185    59A     -0.395241    60A     -0.364095
      61A     -0.341811    62A     -0.319818

  @DF-RKS Final Energy: -1188.33235465287157

   => Energetics <=

    Nuclear Repulsion Energy =           1187.7011282302794370
    One-Electron Energy =               -3990.3745897517646881
    Two-Electron Energy =                1704.0935577857842418
    DFT Exchange-Correlation Energy =     -89.7389055890274108
    Empirical Dispersion Energy =          -0.0135453281429421
    VV10 Nonlocal Energy =                  0.0000000000000000
    Total Energy =                      -1188.3323546528715724

  Dipole Moment: [D]
     X:     8.2946      Y:    -1.1458      Z:    -0.9609     Total:     8.4283

*** Psi4 exiting successfully. Buy a developer a beer!
