                               Psi4 1.3.2 release

  ==> Input File <==

--------------------------------------------------------------------------
molecule {
0 1
 N   -1.074049   -1.488231    0.150080
 C   -2.378614   -1.143323    0.387088
 C   -2.685223    0.390073    0.435333
 F   -3.624890    0.654129   -0.535704
 F   -3.246479    0.661774    1.663043
 C   -1.481357    1.372656    0.223968
 C   -0.146625    0.780400   -0.023738
 C    0.973619    1.615858   -0.227140
 C    2.244924    1.075983   -0.461243
 C    2.430423   -0.333035   -0.503357
 C    1.310235   -1.166396   -0.289193
 C    0.032078   -0.629922   -0.055403
 S    3.973159   -1.177723   -0.757802
 C    5.253626    0.104405   -0.826267
 O   -3.227861   -2.008547    0.544600
 O   -1.654470    2.587161    0.262811
 H    3.075224    1.765300   -0.606799
 H    0.823606    2.695658   -0.197023
 H   -0.941311   -2.490118    0.129822
 H    1.438732   -2.249922   -0.300763
 H    5.096407    0.729641   -1.710510
 H    5.214616    0.712294    0.082899
 H    6.232262   -0.380175   -0.895665
}
set optking {
  frozen_dihedral = ("
    11 10 13 14
    9 10 13 14
    21 14 13 10
  ")
}
set {
  geom_maxiter 400
  g_convergence GAU_LOOSE
  dynamic_level 1
}
memory 16GB
set_num_threads(8)
psi4_io.set_default_path("/scratch/Psi4-ligand")
for _ in range(1):
  try:
    set opt_coordinates both
    optimize('wb97x-d/6-31+G*')
    break
  except OptimizationConvergenceError:
    break
  else:
    try:
      set opt_coordinates cartesian
      optimize('wb97x-d/6-31+G*')
      break
    except OptimizationConvergenceError:
      pass
clean()
--------------------------------------------------------------------------

    Molecular point group: c1
  Charge       = 0
  Multiplicity = 1
  Basis Set: 6-31+G*
    Blend: 6-31+G*
  Basis Set: (6-31+G* AUX)
    Blend: HEAVY-AUG-CC-PVDZ-JKFIT
  @DF-RKS Final Energy: -1188.11620944661604
    Total Energy =                      -1188.1162094466158123
    Molecular point group: c1
  Basis Set: 6-31+G*
    Blend: 6-31+G*
  Basis Set: (6-31+G* AUX)
    Blend: HEAVY-AUG-CC-PVDZ-JKFIT
  Basis Set: 6-31+G*
    Blend: 6-31+G*
  Basis Set: (6-31+G* AUX)
    Blend: HEAVY-AUG-CC-PVDZ-JKFIT
  @DF-RKS Final Energy: -1188.12236758595009
    Total Energy =                      -1188.1223675859503146
  Basis Set: 6-31+G*
    Blend: 6-31+G*
  Basis Set: (6-31+G* AUX)
    Blend: HEAVY-AUG-CC-PVDZ-JKFIT
  Basis Set: 6-31+G*
    Blend: 6-31+G*
  @DF-RKS Final Energy: -1188.12267367585605
    Total Energy =                      -1188.1226736758560492
  @DF-RKS Final Energy: -1188.12275524082725
    Total Energy =                      -1188.1227552408272459
  @DF-RKS Final Energy: -1188.12258622154945
    Total Energy =                      -1188.1225862215494544
  @DF-RKS Final Energy: -1188.12275553605036
    Total Energy =                      -1188.1227555360503629
  @DF-RKS Final Energy: -1188.12247204759797
    Total Energy =                      -1188.1224720475977392
  Basis Set: (6-31+G* AUX)
    Blend: HEAVY-AUG-CC-PVDZ-JKFIT
  Basis Set: 6-31+G*
    Blend: 6-31+G*
  Basis Set: (6-31+G* AUX)
    Blend: HEAVY-AUG-CC-PVDZ-JKFIT
  @DF-RKS Final Energy: -1188.12272754685955
    Total Energy =                      -1188.1227275468595508
  Basis Set: 6-31+G*
    Blend: 6-31+G*
  Basis Set: (6-31+G* AUX)
    Blend: HEAVY-AUG-CC-PVDZ-JKFIT
  Charge       = 0
  Multiplicity = 1
  Basis Set: 6-31+G*
    Blend: 6-31+G*
  Basis Set: (6-31+G* AUX)
    Blend: HEAVY-AUG-CC-PVDZ-JKFIT

    Orbital Energies [Eh]
    ---------------------

    Doubly Occupied:

       1A    -89.085083     2A    -24.870800     3A    -24.870512
       4A    -19.300927     5A    -19.291575     6A    -14.540576
       7A    -10.498928     8A    -10.452200     9A    -10.426938
      10A    -10.405680    11A    -10.387232    12A    -10.356868
      13A    -10.350372    14A    -10.347552    15A    -10.346597
      16A    -10.341118    17A     -8.102754    18A     -6.053419
      19A     -6.048970    20A     -6.042949    21A     -1.390082
      22A     -1.328999    23A     -1.192671    24A     -1.180810
      25A     -1.098579    26A     -1.006202    27A     -0.945024
      28A     -0.906814    29A     -0.888425    30A     -0.868650
      31A     -0.800049    32A     -0.765308    33A     -0.753367
      34A     -0.745253    35A     -0.696606    36A     -0.683109
      37A     -0.669271    38A     -0.646303    39A     -0.629726
      40A     -0.591825    41A     -0.587189    42A     -0.568065
      43A     -0.562490    44A     -0.557673    45A     -0.555021
      46A     -0.554110    47A     -0.550250    48A     -0.534653
      49A     -0.519354    50A     -0.516059    51A     -0.507129
      52A     -0.498203    53A     -0.489740    54A     -0.487789
      55A     -0.474843    56A     -0.442182    57A     -0.433997
      58A     -0.397901    59A     -0.394243    60A     -0.363123
      61A     -0.340040    62A     -0.319325

  @DF-RKS Final Energy: -1188.12277400960738

   => Energetics <=

    Nuclear Repulsion Energy =           1188.3427453188078289
    One-Electron Energy =               -3990.6687163254177904
    Two-Electron Energy =                1703.7748792832733216
    DFT Exchange-Correlation Energy =     -89.5579622708917782
    Empirical Dispersion Energy =          -0.0137200153789691
    VV10 Nonlocal Energy =                  0.0000000000000000
    Total Energy =                      -1188.1227740096073831

  Dipole Moment: [D]
     X:     8.1492      Y:    -0.8582      Z:    -1.4366     Total:     8.3192

    Molecular point group: c1
  Basis Set: 6-31+G*
    Blend: 6-31+G*
  Basis Set: (6-31+G* AUX)
    Blend: HEAVY-AUG-CC-PVDZ-JKFIT

  -Total Gradient:
     Atom            X                  Y                   Z
    ------   -----------------  -----------------  -----------------
       1        0.000072571161    -0.000031210827     0.000049718595
       2        0.000053351971     0.000047833668    -0.000004421555
       3        0.000021610830    -0.000054348161    -0.000299084761
       4        0.000055158443    -0.000043461770     0.000105375841
       5       -0.000014260572    -0.000007939002     0.000161029287
       6        0.000129991792    -0.000429680194     0.000018148145
       7        0.000064760473     0.000125026864     0.000001736122
       8       -0.000118593915    -0.000035299380     0.000046313294
       9        0.000291535046    -0.000209410693     0.001077041201
      10       -0.000467654152     0.000238235862    -0.003396427772
      11        0.000164006235    -0.000081694950     0.001376482032
      12        0.000151917278    -0.000117443899    -0.000046188728
      13        0.000066661927    -0.000087331463     0.000689860743
      14        0.000152238502     0.000126354013     0.000223861481
      15       -0.000010983323    -0.000085742093    -0.000022789177
      16       -0.000047188118     0.000366210265    -0.000007509535
      17        0.000065858349     0.000011576910    -0.000006505757
      18        0.000050837251    -0.000010322291    -0.000005251896
      19        0.000025149196    -0.000024897144    -0.000007994938
      20        0.000045662699    -0.000010232960    -0.000004578229
      21       -0.000022333423    -0.000006661976     0.000030104427
      22       -0.000006497550    -0.000023593811    -0.000003374816
      23        0.000017431885    -0.000040549665     0.000003135988

  **** Optimization is complete! (in 3 steps) ****
    Final optimized geometry and variables:
    Molecular point group: c1

    Geometry (in Angstrom), charge = 0, multiplicity = 1:

    N           -0.980164728866    -1.522224210153     0.162638222051
    C           -2.284359797833    -1.198203139742     0.427283777485
    C           -2.607054400049     0.313644586382     0.497609219093
    F           -3.544053377121     0.567891885411    -0.448946880538
    F           -3.155143449506     0.553228050497     1.713170610238
    C           -1.438796269402     1.316572311882     0.292002631259
    C           -0.114198925641     0.751913505725     0.019670349595
    C            0.981132615816     1.597734074708    -0.182001772997
    C            2.244126255136     1.095732331084    -0.439553328741
    C            2.434722861559    -0.293974296951    -0.504634382828
    C            1.350310524120    -1.152732751936    -0.293233616665
    C            0.083532214004    -0.638546005343    -0.039921200224
    S            3.989580194127    -1.069612634138    -0.793914048021
    C            5.156280947409     0.312350756622    -0.839163560829
    O           -3.146023498473    -2.029740376427     0.595055058971
    O           -1.682192485210     2.500912040257     0.364276812405
    H            3.067967221600     1.782024981009    -0.593983171872
    H            0.812635974714     2.669091574336    -0.130361484673
    H           -0.796492596312    -2.517357665208     0.116079199946
    H            1.499202433452    -2.229315882958    -0.326669856284
    H            4.973811563520     0.971664350765    -1.691215384484
    H            5.140002767262     0.879683530293     0.094715122844
    H            6.142570938271    -0.143031779424    -0.955002406531

*** Psi4 exiting successfully. Buy a developer a beer!
