                               Psi4 1.3.2 release

  ==> Input File <==

--------------------------------------------------------------------------
molecule {
0 1
 N   -0.964836   -1.523397    0.244584
 C   -2.253765   -1.197601    0.573937
 C   -2.591421    0.312264    0.559861
 F   -3.428437    0.520003   -0.493521
 F   -3.262025    0.594052    1.695565
 C   -1.415422    1.314357    0.407402
 C   -0.106414    0.751425    0.064641
 C    0.979028    1.597944   -0.184066
 C    2.225638    1.096636   -0.511218
 C    2.410031   -0.293170   -0.596865
 C    1.338073   -1.152317   -0.333485
 C    0.085868   -0.638639   -0.014244
 S    3.947688   -1.065868   -0.971937
 C    5.108938    0.317777   -1.056740
 O   -3.096447   -2.025908    0.829652
 O   -1.642790    2.494710    0.554668
 H    3.041617    1.782474   -0.704251
 H    0.814947    2.668974   -0.114701
 H   -0.774553   -2.518158    0.224427
 H    1.484058   -2.228826   -0.379064
 H    4.889152    0.983521   -1.895011
 H    5.133275    0.878046   -0.118741
 H    6.089745   -0.134801   -1.219491
}
memory 16GB
set_num_threads(8)
psi4_io.set_default_path("/scratch/Psi4-ligand")
set freeze_core True
E, wfn = energy('wb97x-d/6-311++g**',return_wfn=True)
oeprop(wfn,"WIBERG_LOWDIN_INDICES")
clean()
--------------------------------------------------------------------------

    Molecular point group: c1

    Geometry (in Angstrom), charge = 0, multiplicity = 1:

       Center              X                  Y                   Z               Mass
    ------------   -----------------  -----------------  -----------------  -----------------
         N           -0.964836012775    -1.523397028526     0.244583954518    14.003074004430
         C           -2.253765012775    -1.197601028526     0.573936954518    12.000000000000
         C           -2.591421012775     0.312263971474     0.559860954518    12.000000000000
         F           -3.428437012775     0.520002971474    -0.493521045482    18.998403162730
         F           -3.262025012775     0.594051971474     1.695564954518    18.998403162730
         C           -1.415422012775     1.314356971474     0.407401954518    12.000000000000
         C           -0.106414012775     0.751424971474     0.064640954518    12.000000000000
         C            0.979027987225     1.597943971474    -0.184066045482    12.000000000000
         C            2.225637987225     1.096635971474    -0.511218045482    12.000000000000
         C            2.410030987225    -0.293170028526    -0.596865045482    12.000000000000
         C            1.338072987225    -1.152317028526    -0.333485045482    12.000000000000
         C            0.085867987225    -0.638639028526    -0.014244045482    12.000000000000
         S            3.947687987225    -1.065868028526    -0.971937045482    31.972071174400
         C            5.108937987225     0.317776971474    -1.056740045482    12.000000000000
         O           -3.096447012775    -2.025908028526     0.829651954518    15.994914619570
         O           -1.642790012775     2.494709971474     0.554667954518    15.994914619570
         H            3.041616987225     1.782473971474    -0.704251045482     1.007825032230
         H            0.814946987225     2.668973971474    -0.114701045482     1.007825032230
         H           -0.774553012775    -2.518158028526     0.224426954518     1.007825032230
         H            1.484057987225    -2.228826028526    -0.379064045482     1.007825032230
         H            4.889151987225     0.983520971474    -1.895011045482     1.007825032230
         H            5.133274987225     0.878045971474    -0.118741045482     1.007825032230
         H            6.089744987225    -0.134801028526    -1.219491045482     1.007825032230

  Charge       = 0
  Multiplicity = 1
  Basis Set: 6-311++G**
    Blend: 6-311++G**
  Basis Set: (6-311++G** AUX)
    Blend: AUG-CC-PVTZ-JKFIT

    Orbital Energies [Eh]
    ---------------------

    Doubly Occupied:

       1A    -89.054095     2A    -24.840029     3A    -24.838194
       4A    -19.269330     5A    -19.260422     6A    -14.516809
       7A    -10.484651     8A    -10.436372     9A    -10.411108
      10A    -10.390893    11A    -10.371912    12A    -10.341796
      13A    -10.334676    14A    -10.331306    15A    -10.330848
      16A    -10.324366    17A     -8.094750    18A     -6.044201
      19A     -6.039798    20A     -6.033924    21A     -1.389580
      22A     -1.328099    23A     -1.192389    24A     -1.180185
      25A     -1.098470    26A     -1.006823    27A     -0.945389
      28A     -0.907044    29A     -0.888622    30A     -0.868689
      31A     -0.800198    32A     -0.765791    33A     -0.753615
      34A     -0.745774    35A     -0.697462    36A     -0.684013
      37A     -0.670118    38A     -0.646877    39A     -0.630306
      40A     -0.593166    41A     -0.588281    42A     -0.569422
      43A     -0.563926    44A     -0.558123    45A     -0.557209
      46A     -0.553879    47A     -0.550064    48A     -0.535198
      49A     -0.519826    50A     -0.516052    51A     -0.508439
      52A     -0.498783    53A     -0.491042    54A     -0.488269
      55A     -0.475662    56A     -0.443614    57A     -0.434802
      58A     -0.399229    59A     -0.395415    60A     -0.364181
      61A     -0.341794    62A     -0.320376

  @DF-RKS Final Energy: -1188.33426175687100

   => Energetics <=

    Nuclear Repulsion Energy =           1188.9334727231043871
    One-Electron Energy =               -3992.8299920660683711
    Two-Electron Energy =                1705.3165491254819699
    DFT Exchange-Correlation Energy =     -89.7405517923440073
    Empirical Dispersion Energy =          -0.0137397470450663
    VV10 Nonlocal Energy =                  0.0000000000000000
    Total Energy =                      -1188.3342617568710011

  Dipole Moment: [D]
     X:     8.1165      Y:    -0.9217      Z:    -1.7176     Total:     8.3473

*** Psi4 exiting successfully. Buy a developer a beer!
