                               Psi4 1.3.2 release

  ==> Input File <==

--------------------------------------------------------------------------
molecule {
0 1
 N   -1.077541   -1.486866    0.106311
 C   -2.381360   -1.162614    0.375184
 C   -2.699898    0.365580    0.481388
 F   -3.632711    0.660826   -0.487415
 F   -3.273991    0.584150    1.713986
 C   -1.501564    1.364792    0.319829
 C   -0.165754    0.793261    0.032100
 C    0.949889    1.642657   -0.131495
 C    2.220656    1.123509   -0.413709
 C    2.413680   -0.280245   -0.542413
 C    1.297084   -1.126971   -0.357292
 C    0.019939   -0.611849   -0.075201
 S    3.943033   -1.132860   -0.873244
 C    5.310776    0.065281   -0.900657
 O   -3.221413   -2.040250    0.512141
 O   -1.680786    2.574714    0.422386
 H    3.038898    1.829595   -0.534859
 H    0.796031    2.718317   -0.037710
 H   -0.937676   -2.486173    0.045265
 H    1.426498   -2.207710   -0.437550
 H    5.850126   -0.044621   -1.846431
 H    4.956464    1.092431   -0.811663
 H    5.987650   -0.157011   -0.069913
}
set optking {
  frozen_dihedral = ("
    11 10 13 14
    9 10 13 14
    21 14 13 10
  ")
}
set {
  geom_maxiter 400
  g_convergence GAU_LOOSE
  dynamic_level 1
}
memory 16GB
set_num_threads(8)
psi4_io.set_default_path("/scratch/Psi4-ligand")
for _ in range(1):
  try:
    set opt_coordinates both
    optimize('wb97x-d/6-31+G*')
    break
  except OptimizationConvergenceError:
    break
  else:
    try:
      set opt_coordinates cartesian
      optimize('wb97x-d/6-31+G*')
      break
    except OptimizationConvergenceError:
      pass
clean()
--------------------------------------------------------------------------

    Molecular point group: c1
  Charge       = 0
  Multiplicity = 1
  Basis Set: 6-31+G*
    Blend: 6-31+G*
  Basis Set: (6-31+G* AUX)
    Blend: HEAVY-AUG-CC-PVDZ-JKFIT
  @DF-RKS Final Energy: -1188.11149910931113
    Total Energy =                      -1188.1114991093111257
    Molecular point group: c1
  Basis Set: 6-31+G*
    Blend: 6-31+G*
  Basis Set: (6-31+G* AUX)
    Blend: HEAVY-AUG-CC-PVDZ-JKFIT
  Basis Set: 6-31+G*
    Blend: 6-31+G*
  Basis Set: (6-31+G* AUX)
    Blend: HEAVY-AUG-CC-PVDZ-JKFIT
  @DF-RKS Final Energy: -1188.11695288905571
    Total Energy =                      -1188.1169528890559377
  Basis Set: 6-31+G*
    Blend: 6-31+G*
  Basis Set: (6-31+G* AUX)
    Blend: HEAVY-AUG-CC-PVDZ-JKFIT
  Basis Set: 6-31+G*
    Blend: 6-31+G*
  @DF-RKS Final Energy: -1188.11724506056703
    Total Energy =                      -1188.1172450605670292
  @DF-RKS Final Energy: -1188.11747909222231
    Total Energy =                      -1188.1174790922223110
  @DF-RKS Final Energy: -1188.11738899371107
    Total Energy =                      -1188.1173889937110744
  @DF-RKS Final Energy: -1188.11747993102313
    Total Energy =                      -1188.1174799310231265
  @DF-RKS Final Energy: -1188.11742586326000
    Total Energy =                      -1188.1174258632602232
  @DF-RKS Final Energy: -1188.11748273695321
    Total Energy =                      -1188.1174827369532068
  @DF-RKS Final Energy: -1188.11750143183531
    Total Energy =                      -1188.1175014318353078
  @DF-RKS Final Energy: -1188.11755398185551
    Total Energy =                      -1188.1175539818555080
  @DF-RKS Final Energy: -1188.11698134489416
    Total Energy =                      -1188.1169813448939294
  Basis Set: (6-31+G* AUX)
    Blend: HEAVY-AUG-CC-PVDZ-JKFIT
  Basis Set: 6-31+G*
    Blend: 6-31+G*
  Basis Set: (6-31+G* AUX)
    Blend: HEAVY-AUG-CC-PVDZ-JKFIT
  @DF-RKS Final Energy: -1188.11747002710990
    Total Energy =                      -1188.1174700271099027
  Basis Set: 6-31+G*
    Blend: 6-31+G*
  Basis Set: (6-31+G* AUX)
    Blend: HEAVY-AUG-CC-PVDZ-JKFIT
  Charge       = 0
  Multiplicity = 1
  Basis Set: 6-31+G*
    Blend: 6-31+G*
  Basis Set: (6-31+G* AUX)
    Blend: HEAVY-AUG-CC-PVDZ-JKFIT

    Orbital Energies [Eh]
    ---------------------

    Doubly Occupied:

       1A    -89.084644     2A    -24.871457     3A    -24.869574
       4A    -19.300746     5A    -19.291749     6A    -14.540521
       7A    -10.498869     8A    -10.452343     9A    -10.426841
      10A    -10.405655    11A    -10.389527    12A    -10.356071
      13A    -10.350569    14A    -10.347238    15A    -10.346135
      16A    -10.341920    17A     -8.102377    18A     -6.053102
      19A     -6.048509    20A     -6.042556    21A     -1.389852
      22A     -1.328782    23A     -1.192489    24A     -1.180380
      25A     -1.098574    26A     -1.006106    27A     -0.943756
      28A     -0.905918    29A     -0.889015    30A     -0.868660
      31A     -0.800807    32A     -0.765216    33A     -0.753520
      34A     -0.745538    35A     -0.696728    36A     -0.683137
      37A     -0.668989    38A     -0.646427    39A     -0.630757
      40A     -0.592772    41A     -0.587808    42A     -0.567909
      43A     -0.562409    44A     -0.557237    45A     -0.555285
      46A     -0.552939    47A     -0.548672    48A     -0.534019
      49A     -0.518680    50A     -0.515677    51A     -0.507503
      52A     -0.498787    53A     -0.490939    54A     -0.487853
      55A     -0.474796    56A     -0.442992    57A     -0.431815
      58A     -0.397876    59A     -0.394188    60A     -0.362902
      61A     -0.340241    62A     -0.317518

  @DF-RKS Final Energy: -1188.11755402680296

   => Energetics <=

    Nuclear Repulsion Energy =           1186.6843344744852402
    One-Electron Energy =               -3987.3548497940469133
    Two-Electron Energy =                1702.1221603214937659
    DFT Exchange-Correlation Energy =     -89.5558090870959091
    Empirical Dispersion Energy =          -0.0133899416392776
    VV10 Nonlocal Energy =                  0.0000000000000000
    Total Energy =                      -1188.1175540268031909

  Dipole Moment: [D]
     X:     8.2084      Y:    -1.0166      Z:    -1.5860     Total:     8.4218

    Molecular point group: c1
  Basis Set: 6-31+G*
    Blend: 6-31+G*
  Basis Set: (6-31+G* AUX)
    Blend: HEAVY-AUG-CC-PVDZ-JKFIT

  -Total Gradient:
     Atom            X                  Y                   Z
    ------   -----------------  -----------------  -----------------
       1        0.000318380681    -0.000552977274     0.000315521601
       2        0.000110482524    -0.000178017240    -0.000454466157
       3       -0.000122850009     0.000072514652    -0.001793169881
       4        0.000222588583    -0.000173587524     0.000840231021
       5       -0.000415035382     0.000180153104     0.001096886926
       6        0.000577383688    -0.000201779243    -0.000271708016
       7        0.000326738857     0.000181929553    -0.000001912936
       8        0.000130798790    -0.000220466639     0.000123617010
       9        0.000362506591     0.000102440730     0.001430793709
      10       -0.001038886080    -0.000400631756    -0.004767703099
      11        0.000378240905     0.000324801577     0.001666094557
      12        0.000013601455    -0.000157937987     0.000026384647
      13        0.000445685557     0.000068332212     0.001400077917
      14        0.000023323139    -0.001607448963     0.000773509332
      15       -0.000538457975    -0.000569941468     0.000143051708
      16       -0.000070502416     0.000911360810     0.000013199457
      17        0.000678858718     0.000063567491    -0.000109892766
      18       -0.000096401609     0.000088985612     0.000049529138
      19        0.000143032294     0.000286721554    -0.000077325345
      20        0.000125764006    -0.000130502893    -0.000019312413
      21       -0.000503922333     0.000797634112    -0.000419156878
      22       -0.000392832288     0.000668372667    -0.000025833774
      23        0.000187058823     0.000097082752     0.000042617356

  **** Optimization is complete! (in 1 steps) ****
    Final optimized geometry and variables:
    Molecular point group: c1

    Geometry (in Angstrom), charge = 0, multiplicity = 1:

    N           -1.012426183451    -1.488634571099     0.151901689463
    C           -2.304741050444    -1.143745857123     0.448404565855
    C           -2.599666234977     0.375435080528     0.518742567687
    F           -3.451584797011     0.658440939524    -0.501431461473
    F           -3.240971660240     0.615076205395     1.684647156848
    C           -1.397700100754     1.354951337807     0.406105178897
    C           -0.094846690610     0.769408227832     0.080446913736
    C            1.020576948311     1.592649069795    -0.102980127123
    C            2.264313642452     1.071186816789    -0.408114970005
    C            2.419005146684    -0.318003346057    -0.542477068773
    C            1.314872795728    -1.154110762328    -0.341002141806
    C            0.066275777814    -0.621251690749    -0.040935868938
    S            3.921816680754    -1.169172953742    -0.907510243284
    C            5.238399715265     0.081553464425    -0.939362355591
    O           -3.177911435944    -1.960522868470     0.630026082421
    O           -1.601951091932     2.537394758752     0.572873828205
    H            3.095184962740     1.751608815770    -0.547305954631
    H            0.882326856344     2.664763577751     0.000541357438
    H           -0.847586677962    -2.485384337993     0.082421488752
    H            1.434679194070    -2.232079470336    -0.421497206246
    H            5.765445129750     0.004726979729    -1.892238367491
    H            4.845751226896     1.094704059685    -0.855474094407
    H            5.931013921621    -0.096170043638    -0.114636533243

*** Psi4 exiting successfully. Buy a developer a beer!
