                               Psi4 1.3.2 release

  ==> Input File <==

--------------------------------------------------------------------------
molecule {
0 1
 N   -1.082623   -1.492705    0.065715
 C   -2.377167   -1.157520    0.365135
 C   -2.673696    0.372363    0.505416
 F   -3.559582    0.713094   -0.491697
 F   -3.295593    0.566778    1.719110
 C   -1.452036    1.352148    0.420208
 C   -0.130940    0.772515    0.084685
 C    0.999938    1.609057   -0.038755
 C    2.254813    1.083766   -0.373023
 C    2.415104   -0.312681   -0.586529
 C    1.288905   -1.151252   -0.430427
 C    0.026451   -0.628758   -0.099329
 S    3.932525   -1.140436   -1.000147
 C    5.233378    0.121845   -0.956326
 O   -3.227693   -2.026542    0.492306
 O   -1.604332    2.556259    0.603115
 H    3.090318    1.775525   -0.468732
 H    0.869434    2.679435    0.123765
 H   -0.958259   -2.491712   -0.025856
 H    1.398014   -2.227124   -0.575810
 H    6.202331   -0.365938   -1.100756
 H    5.064593    0.846178   -1.759247
 H    5.224149    0.623644    0.016217
}
set optking {
  frozen_dihedral = ("
    11 10 13 14
    9 10 13 14
    21 14 13 10
  ")
}
set {
  geom_maxiter 400
  g_convergence GAU_LOOSE
  dynamic_level 1
}
memory 16GB
set_num_threads(8)
psi4_io.set_default_path("/scratch/Psi4-ligand")
for _ in range(1):
  try:
    set opt_coordinates both
    optimize('wb97x-d/6-31+G*')
    break
  except OptimizationConvergenceError:
    break
  else:
    try:
      set opt_coordinates cartesian
      optimize('wb97x-d/6-31+G*')
      break
    except OptimizationConvergenceError:
      pass
clean()
--------------------------------------------------------------------------

    Molecular point group: c1
  Charge       = 0
  Multiplicity = 1
  Basis Set: 6-31+G*
    Blend: 6-31+G*
  Basis Set: (6-31+G* AUX)
    Blend: HEAVY-AUG-CC-PVDZ-JKFIT
  @DF-RKS Final Energy: -1188.11608858876002
    Total Energy =                      -1188.1160885887600216
    Molecular point group: c1
  Basis Set: 6-31+G*
    Blend: 6-31+G*
  Basis Set: (6-31+G* AUX)
    Blend: HEAVY-AUG-CC-PVDZ-JKFIT
  Basis Set: 6-31+G*
    Blend: 6-31+G*
  Basis Set: (6-31+G* AUX)
    Blend: HEAVY-AUG-CC-PVDZ-JKFIT
  @DF-RKS Final Energy: -1188.12238084034880
    Total Energy =                      -1188.1223808403487965
  Basis Set: 6-31+G*
    Blend: 6-31+G*
  Basis Set: (6-31+G* AUX)
    Blend: HEAVY-AUG-CC-PVDZ-JKFIT
  Basis Set: 6-31+G*
    Blend: 6-31+G*
  @DF-RKS Final Energy: -1188.12272227706330
    Total Energy =                      -1188.1227222770633034
  @DF-RKS Final Energy: -1188.12278220962617
    Total Energy =                      -1188.1227822096261661
  @DF-RKS Final Energy: -1188.12285530366398
    Total Energy =                      -1188.1228553036639823
  @DF-RKS Final Energy: -1188.12300834642815
    Total Energy =                      -1188.1230083464283780
  @DF-RKS Final Energy: -1188.12324855196312
    Total Energy =                      -1188.1232485519631155
  @DF-RKS Final Energy: -1188.12338053177677
    Total Energy =                      -1188.1233805317770020
  @DF-RKS Final Energy: -1188.12365929773091
    Total Energy =                      -1188.1236592977309101
  @DF-RKS Final Energy: -1188.12379396148913
    Total Energy =                      -1188.1237939614889001
  @DF-RKS Final Energy: -1188.12377009666261
    Total Energy =                      -1188.1237700966626107
  @DF-RKS Final Energy: -1188.12379245729971
    Total Energy =                      -1188.1237924572997144
  @DF-RKS Final Energy: -1188.12380221933699
    Total Energy =                      -1188.1238022193369943
  Basis Set: (6-31+G* AUX)
    Blend: HEAVY-AUG-CC-PVDZ-JKFIT
  Basis Set: 6-31+G*
    Blend: 6-31+G*
  Basis Set: (6-31+G* AUX)
    Blend: HEAVY-AUG-CC-PVDZ-JKFIT
  @DF-RKS Final Energy: -1188.12377361337099
    Total Energy =                      -1188.1237736133712133
  Basis Set: 6-31+G*
    Blend: 6-31+G*
  Basis Set: (6-31+G* AUX)
    Blend: HEAVY-AUG-CC-PVDZ-JKFIT
  Charge       = 0
  Multiplicity = 1
  Basis Set: 6-31+G*
    Blend: 6-31+G*
  Basis Set: (6-31+G* AUX)
    Blend: HEAVY-AUG-CC-PVDZ-JKFIT

    Orbital Energies [Eh]
    ---------------------

    Doubly Occupied:

       1A    -89.083869     2A    -24.873151     3A    -24.871698
       4A    -19.303579     5A    -19.293623     6A    -14.539011
       7A    -10.498949     8A    -10.452756     9A    -10.427957
      10A    -10.404365    11A    -10.385911    12A    -10.355931
      13A    -10.350101    14A    -10.346586    15A    -10.346047
      16A    -10.340318    17A     -8.101563    18A     -6.052233
      19A     -6.047784    20A     -6.041746    21A     -1.391456
      22A     -1.330343    23A     -1.193487    24A     -1.182586
      25A     -1.097887    26A     -1.005117    27A     -0.944405
      28A     -0.907635    29A     -0.887859    30A     -0.868756
      31A     -0.798809    32A     -0.764858    33A     -0.753647
      34A     -0.744431    35A     -0.696663    36A     -0.680637
      37A     -0.670143    38A     -0.645097    39A     -0.629945
      40A     -0.592061    41A     -0.587416    42A     -0.569698
      43A     -0.563008    44A     -0.558666    45A     -0.557157
      46A     -0.551196    47A     -0.547768    48A     -0.534568
      49A     -0.520809    50A     -0.514544    51A     -0.509356
      52A     -0.498545    53A     -0.491940    54A     -0.487246
      55A     -0.474857    56A     -0.442248    57A     -0.432941
      58A     -0.397764    59A     -0.394894    60A     -0.364111
      61A     -0.339439    62A     -0.318296

  @DF-RKS Final Energy: -1188.12380737564172

   => Energetics <=

    Nuclear Repulsion Energy =           1191.8007225624146486
    One-Electron Energy =               -3997.5916290728728200
    Two-Electron Energy =                1707.2370538635091179
    DFT Exchange-Correlation Energy =     -89.5560994216986330
    Empirical Dispersion Energy =          -0.0138553069938035
    VV10 Nonlocal Energy =                  0.0000000000000000
    Total Energy =                      -1188.1238073756414906

  Dipole Moment: [D]
     X:     7.7189      Y:    -0.6397      Z:    -1.9645     Total:     7.9906

    Molecular point group: c1
  Basis Set: 6-31+G*
    Blend: 6-31+G*
  Basis Set: (6-31+G* AUX)
    Blend: HEAVY-AUG-CC-PVDZ-JKFIT

  -Total Gradient:
     Atom            X                  Y                   Z
    ------   -----------------  -----------------  -----------------
       1       -0.000002418145    -0.000592079680     0.000059667616
       2        0.000202782968     0.000013942187    -0.000213377768
       3        0.000066567137    -0.000235877817     0.000276787591
       4       -0.000299249612     0.000111882807    -0.000942512890
       5       -0.000310383526     0.000112575872     0.000497153126
       6        0.000538452160    -0.000512836179    -0.000067650810
       7       -0.000100038949     0.000412831189     0.000007675989
       8       -0.000044299044     0.000077070536     0.000093110053
       9        0.000583023232    -0.000081951170     0.001006835711
      10       -0.000676792437     0.000337757803    -0.002955894078
      11        0.000583510346    -0.000440613232     0.001093114354
      12       -0.000293716726    -0.000209699994     0.000189018344
      13        0.000360248291     0.000146992076     0.000455090579
      14       -0.000144377844     0.000194237473    -0.000306272814
      15       -0.000038381878    -0.000185925406     0.000102544640
      16       -0.000004236796     0.000684268003     0.000214404821
      17        0.000195543254     0.000016911392    -0.000058405718
      18        0.000040435697     0.000131499795     0.000010997328
      19        0.000075513332     0.000048959954    -0.000101333198
      20        0.000041510076    -0.000030380175    -0.000008185529
      21        0.000021956144    -0.000166458575     0.000437066743
      22       -0.000015273397    -0.000118605257     0.000021043329
      23       -0.000013291583    -0.000090856579    -0.000053849966

  **** Optimization is complete! (in 3 steps) ****
    Final optimized geometry and variables:
    Molecular point group: c1

    Geometry (in Angstrom), charge = 0, multiplicity = 1:

    N           -0.964680869045    -1.544133784749     0.225211512726
    C           -2.233252823763    -1.232518602770     0.640457829412
    C           -2.575061768449     0.273341723544     0.564253016965
    F           -3.053613517798     0.483347713668    -0.709536104433
    F           -3.547829325625     0.559080791867     1.433851524899
    C           -1.380558793237     1.247498572328     0.730216979724
    C           -0.098205922991     0.736558011616     0.231929569536
    C            0.980477881659     1.601435252310     0.028118693973
    C            2.201961788998     1.136267567913    -0.428082848496
    C            2.367369924383    -0.234617303026    -0.681993053945
    C            1.302032445582    -1.115369258590    -0.460888270724
    C            0.074622081427    -0.637648658863    -0.015348320542
    S            3.871910705290    -0.965568323814    -1.235944324797
    C            5.044662328821     0.410934793172    -1.229093781483
    O           -3.044580028862    -2.062438483043     0.977245581671
    O           -1.561971602170     2.354060370244     1.185224861480
    H            3.011461930025     1.837604952009    -0.591380942789
    H            0.833584546428     2.657976823638     0.232014848669
    H           -0.760755114635    -2.535356079686     0.185827461689
    H            1.435394200417    -2.180027851426    -0.636997515157
    H            6.014976257160    -0.032611586295    -1.464157110696
    H            4.803523584524     1.156860951281    -1.990063524388
    H            5.107029991005     0.875930733964    -0.242134461019

*** Psi4 exiting successfully. Buy a developer a beer!
