                               Psi4 1.3.2 release

  ==> Input File <==

--------------------------------------------------------------------------
molecule {
0 1
 N   -0.953256   -1.270273   -0.886241
 C   -2.293826   -1.047754   -0.708594
 C   -2.657396    0.137338    0.219068
 F   -3.681179    0.815463   -0.330665
 F   -3.088342   -0.418566    1.388378
 C   -1.524339    1.132142    0.591264
 C   -0.151934    0.687488    0.327057
 C    0.932759    1.440491    0.788476
 C    2.237837    1.046771    0.553769
 C    2.485779   -0.125673   -0.178352
 C    1.409402   -0.896209   -0.634354
 C    0.100054   -0.491517   -0.395585
 S    4.083346   -0.773393   -0.552297
 C    5.258007    0.304774    0.307167
 O   -3.147641   -1.742006   -1.209883
 O   -1.822627    2.183156    1.112194
 H    3.047542    1.647505    0.949086
 H    0.722556    2.346793    1.349113
 H   -0.733652   -2.082714   -1.450584
 H    1.598120   -1.815199   -1.185239
 H    4.941170    1.349437    0.313274
 H    5.401873   -0.017956    1.341799
 H    6.205131    0.223115   -0.229105
}
memory 16GB
set_num_threads(8)
psi4_io.set_default_path("/scratch/Psi4-ligand")
set freeze_core True
E, wfn = energy('wb97x-d/6-311++g**',return_wfn=True)
oeprop(wfn,"WIBERG_LOWDIN_INDICES")
clean()
--------------------------------------------------------------------------

    Molecular point group: c1

    Geometry (in Angstrom), charge = 0, multiplicity = 1:

       Center              X                  Y                   Z               Mass
    ------------   -----------------  -----------------  -----------------  -----------------
         N           -0.953256101963    -1.270272896787    -0.886241023928    14.003074004430
         C           -2.293826101963    -1.047753896787    -0.708594023928    12.000000000000
         C           -2.657396101963     0.137338103213     0.219067976072    12.000000000000
         F           -3.681179101963     0.815463103213    -0.330665023928    18.998403162730
         F           -3.088342101963    -0.418565896787     1.388377976072    18.998403162730
         C           -1.524339101963     1.132142103213     0.591263976072    12.000000000000
         C           -0.151934101963     0.687488103213     0.327056976072    12.000000000000
         C            0.932758898037     1.440491103213     0.788475976072    12.000000000000
         C            2.237836898037     1.046771103213     0.553768976072    12.000000000000
         C            2.485778898037    -0.125672896787    -0.178352023928    12.000000000000
         C            1.409401898037    -0.896208896787    -0.634354023928    12.000000000000
         C            0.100053898037    -0.491516896787    -0.395585023928    12.000000000000
         S            4.083345898037    -0.773392896787    -0.552297023928    31.972071174400
         C            5.258006898037     0.304774103213     0.307166976072    12.000000000000
         O           -3.147641101963    -1.742005896787    -1.209883023928    15.994914619570
         O           -1.822627101963     2.183156103213     1.112193976072    15.994914619570
         H            3.047541898037     1.647505103213     0.949085976072     1.007825032230
         H            0.722555898037     2.346793103213     1.349112976072     1.007825032230
         H           -0.733652101963    -2.082713896787    -1.450584023928     1.007825032230
         H            1.598119898037    -1.815198896787    -1.185239023928     1.007825032230
         H            4.941169898037     1.349437103213     0.313273976072     1.007825032230
         H            5.401872898037    -0.017955896787     1.341798976072     1.007825032230
         H            6.205130898037     0.223115103213    -0.229105023928     1.007825032230

  Charge       = 0
  Multiplicity = 1
  Basis Set: 6-311++G**
    Blend: 6-311++G**
  Basis Set: (6-311++G** AUX)
    Blend: AUG-CC-PVTZ-JKFIT

    Orbital Energies [Eh]
    ---------------------

    Doubly Occupied:

       1A    -89.053817     2A    -24.840562     3A    -24.838492
       4A    -19.269761     5A    -19.260718     6A    -14.516642
       7A    -10.484815     8A    -10.436658     9A    -10.411316
      10A    -10.390926    11A    -10.373069    12A    -10.341431
      13A    -10.334820    14A    -10.331173    15A    -10.330909
      16A    -10.324721    17A     -8.094427    18A     -6.043933
      19A     -6.039432    20A     -6.033585    21A     -1.389905
      22A     -1.328542    23A     -1.192241    24A     -1.180721
      25A     -1.097944    26A     -1.006366    27A     -0.944320
      28A     -0.906397    29A     -0.888813    30A     -0.868699
      31A     -0.800303    32A     -0.765654    33A     -0.753585
      34A     -0.745791    35A     -0.697501    36A     -0.683771
      37A     -0.670314    38A     -0.646766    39A     -0.630778
      40A     -0.593581    41A     -0.588740    42A     -0.569414
      43A     -0.564237    44A     -0.558062    45A     -0.557724
      46A     -0.552784    47A     -0.546979    48A     -0.535197
      49A     -0.520620    50A     -0.516030    51A     -0.508959
      52A     -0.499155    53A     -0.490738    54A     -0.489684
      55A     -0.475651    56A     -0.443732    57A     -0.433529
      58A     -0.399185    59A     -0.395385    60A     -0.364307
      61A     -0.341787    62A     -0.319216

  @DF-RKS Final Energy: -1188.33210909030618

   => Energetics <=

    Nuclear Repulsion Energy =           1188.0488156006742884
    One-Electron Energy =               -3991.0622391559199968
    Two-Electron Energy =                1704.4311272533209376
    DFT Exchange-Correlation Energy =     -89.7362593839226292
    Empirical Dispersion Energy =          -0.0135534044586698
    VV10 Nonlocal Energy =                  0.0000000000000000
    Total Energy =                      -1188.3321090903061759

  Dipole Moment: [D]
     X:     8.2988      Y:    -0.5043      Z:    -0.3774     Total:     8.3227

*** Psi4 exiting successfully. Buy a developer a beer!
