                               Psi4 1.3.2 release

  ==> Input File <==

--------------------------------------------------------------------------
molecule {
0 1
 N   -0.525572   -1.563758   -0.377253
 C   -1.758844   -1.792180    0.175844
 C   -2.333703   -0.641680    1.036146
 F   -3.452221   -0.195557    0.401409
 F   -2.698928   -1.164370    2.230622
 C   -1.427477    0.595830    1.298887
 C   -0.139672    0.643280    0.586100
 C    0.692783    1.759004    0.724463
 C    1.906326    1.830679    0.059790
 C    2.310800    0.761580   -0.750593
 C    1.500582   -0.364676   -0.881644
 C    0.270203   -0.424819   -0.226839
 S    3.893235    0.832172   -1.569376
 C    3.358588    0.845221   -3.303902
 O   -2.377778   -2.814664    0.003879
 O   -1.829792    1.454263    2.049405
 H    2.540621    2.705351    0.154266
 H    0.354909    2.572277    1.358107
 H   -0.175456   -2.323841   -0.948498
 H    1.833828   -1.203918   -1.485085
 H    2.868684   -0.090085   -3.585286
 H    2.693836    1.687896   -3.499569
 H    4.262614    0.958865   -3.907317
}
memory 16GB
set_num_threads(8)
psi4_io.set_default_path("/scratch/Psi4-ligand")
set freeze_core True
E, wfn = energy('wb97x-d/6-311++g**',return_wfn=True)
oeprop(wfn,"WIBERG_LOWDIN_INDICES")
clean()
--------------------------------------------------------------------------

    Molecular point group: c1

    Geometry (in Angstrom), charge = 0, multiplicity = 1:

       Center              X                  Y                   Z               Mass
    ------------   -----------------  -----------------  -----------------  -----------------
         N           -0.525572065042    -1.563758065866    -0.377253020153    14.003074004430
         C           -1.758844065042    -1.792180065866     0.175843979847    12.000000000000
         C           -2.333703065042    -0.641680065866     1.036145979847    12.000000000000
         F           -3.452221065042    -0.195557065866     0.401408979847    18.998403162730
         F           -2.698928065042    -1.164370065866     2.230621979847    18.998403162730
         C           -1.427477065042     0.595829934134     1.298886979847    12.000000000000
         C           -0.139672065042     0.643279934134     0.586099979847    12.000000000000
         C            0.692782934958     1.759003934134     0.724462979847    12.000000000000
         C            1.906325934958     1.830678934134     0.059789979847    12.000000000000
         C            2.310799934958     0.761579934134    -0.750593020153    12.000000000000
         C            1.500581934958    -0.364676065866    -0.881644020153    12.000000000000
         C            0.270202934958    -0.424819065866    -0.226839020153    12.000000000000
         S            3.893234934958     0.832171934134    -1.569376020153    31.972071174400
         C            3.358587934958     0.845220934134    -3.303902020153    12.000000000000
         O           -2.377778065042    -2.814664065866     0.003878979847    15.994914619570
         O           -1.829792065042     1.454262934134     2.049404979847    15.994914619570
         H            2.540620934958     2.705350934134     0.154265979847     1.007825032230
         H            0.354908934958     2.572276934134     1.358106979847     1.007825032230
         H           -0.175456065042    -2.323841065866    -0.948498020153     1.007825032230
         H            1.833827934958    -1.203918065866    -1.485085020153     1.007825032230
         H            2.868683934958    -0.090085065866    -3.585286020153     1.007825032230
         H            2.693835934958     1.687895934134    -3.499569020153     1.007825032230
         H            4.262613934958     0.958864934134    -3.907317020153     1.007825032230

  Charge       = 0
  Multiplicity = 1
  Basis Set: 6-311++G**
    Blend: 6-311++G**
  Basis Set: (6-311++G** AUX)
    Blend: AUG-CC-PVTZ-JKFIT

    Orbital Energies [Eh]
    ---------------------

    Doubly Occupied:

       1A    -89.040919     2A    -24.844112     3A    -24.842706
       4A    -19.277525     5A    -19.264662     6A    -14.521037
       7A    -10.490021     8A    -10.440779     9A    -10.418377
      10A    -10.394564    11A    -10.365678    12A    -10.339915
      13A    -10.336332    14A    -10.336076    15A    -10.333782
      16A    -10.325636    17A     -8.081577    18A     -6.031146
      19A     -6.027134    20A     -6.020133    21A     -1.392489
      22A     -1.331759    23A     -1.197140    24A     -1.188272
      25A     -1.102731    26A     -1.007148    27A     -0.941443
      28A     -0.905867    29A     -0.891859    30A     -0.867541
      31A     -0.793604    32A     -0.772146    33A     -0.757299
      34A     -0.742650    35A     -0.700515    36A     -0.685493
      37A     -0.673816    38A     -0.650001    39A     -0.631904
      40A     -0.595129    41A     -0.583419    42A     -0.573428
      43A     -0.566698    44A     -0.562768    45A     -0.559277
      46A     -0.555799    47A     -0.541103    48A     -0.535532
      49A     -0.529613    50A     -0.520635    51A     -0.513470
      52A     -0.504182    53A     -0.495915    54A     -0.481605
      55A     -0.475752    56A     -0.445287    57A     -0.427432
      58A     -0.400135    59A     -0.378558    60A     -0.369918
      61A     -0.343005    62A     -0.331109

  @DF-RKS Final Energy: -1188.33039605185490

   => Energetics <=

    Nuclear Repulsion Energy =           1190.1105251681915433
    One-Electron Energy =               -3995.1032675043770723
    Two-Electron Energy =                1706.4065659566419981
    DFT Exchange-Correlation Energy =     -89.7305349739862379
    Empirical Dispersion Energy =          -0.0136846983250731
    VV10 Nonlocal Energy =                  0.0000000000000000
    Total Energy =                      -1188.3303960518549047

  Dipole Moment: [D]
     X:     5.3811      Y:     0.9023      Z:    -4.2425     Total:     6.9115

*** Psi4 exiting successfully. Buy a developer a beer!
