                               Psi4 1.3.2 release

  ==> Input File <==

--------------------------------------------------------------------------
molecule {
0 1
 N   -0.884886   -1.452294    0.184756
 C   -2.156013   -1.182041    0.618909
 C   -2.558592    0.329420    0.663058
 F   -3.665785    0.485967   -0.140363
 F   -2.921204    0.623067    1.958611
 C   -1.481439    1.376511    0.212945
 C   -0.162741    0.861650   -0.222001
 C    0.846916    1.759720   -0.634532
 C    2.100345    1.293706   -1.050143
 C    2.375084   -0.098498   -1.064575
 C    1.371085   -0.997112   -0.643654
 C    0.110085   -0.534591   -0.228476
 S    3.928010   -0.804675   -1.535069
 C    5.079295   -0.191667   -0.278457
 O   -2.904588   -2.091869    0.945594
 O   -1.735805    2.577276    0.227614
 H    2.849639    2.021141   -1.361040
 H    0.624730    2.827235   -0.621382
 H   -0.685333   -2.443243    0.178868
 H    1.578015   -2.068220   -0.637220
 H    5.173503    0.894706   -0.368297
 H    4.701321   -0.448983    0.716069
 H    6.056393   -0.659269   -0.432180
}
set optking {
  frozen_dihedral = ("
    11 10 13 14
    9 10 13 14
    21 14 13 10
  ")
}
set {
  geom_maxiter 400
  g_convergence GAU_LOOSE
  dynamic_level 1
}
memory 16GB
set_num_threads(8)
psi4_io.set_default_path("/scratch/Psi4-ligand")
for _ in range(1):
  try:
    set opt_coordinates both
    optimize('wb97x-d/6-31+G*')
    break
  except OptimizationConvergenceError:
    break
  else:
    try:
      set opt_coordinates cartesian
      optimize('wb97x-d/6-31+G*')
      break
    except OptimizationConvergenceError:
      pass
clean()
--------------------------------------------------------------------------

    Molecular point group: c1
  Charge       = 0
  Multiplicity = 1
  Basis Set: 6-31+G*
    Blend: 6-31+G*
  Basis Set: (6-31+G* AUX)
    Blend: HEAVY-AUG-CC-PVDZ-JKFIT
  @DF-RKS Final Energy: -1188.11294843132737
    Total Energy =                      -1188.1129484313273679
    Molecular point group: c1
  Basis Set: 6-31+G*
    Blend: 6-31+G*
  Basis Set: (6-31+G* AUX)
    Blend: HEAVY-AUG-CC-PVDZ-JKFIT
  Basis Set: 6-31+G*
    Blend: 6-31+G*
  Basis Set: (6-31+G* AUX)
    Blend: HEAVY-AUG-CC-PVDZ-JKFIT
  @DF-RKS Final Energy: -1188.11949748457891
    Total Energy =                      -1188.1194974845786874
  Basis Set: 6-31+G*
    Blend: 6-31+G*
  Basis Set: (6-31+G* AUX)
    Blend: HEAVY-AUG-CC-PVDZ-JKFIT
  Basis Set: 6-31+G*
    Blend: 6-31+G*
  @DF-RKS Final Energy: -1188.11972010508521
    Total Energy =                      -1188.1197201050852073
  @DF-RKS Final Energy: -1188.11974207922253
    Total Energy =                      -1188.1197420792223056
  @DF-RKS Final Energy: -1188.11970276269722
    Total Energy =                      -1188.1197027626972158
  @DF-RKS Final Energy: -1188.11974196641518
    Total Energy =                      -1188.1197419664151766
  @DF-RKS Final Energy: -1188.11970273620932
    Total Energy =                      -1188.1197027362093195
  @DF-RKS Final Energy: -1188.11974577837077
    Total Energy =                      -1188.1197457783707705
  @DF-RKS Final Energy: -1188.11977030498110
    Total Energy =                      -1188.1197703049813299
  @DF-RKS Final Energy: -1188.11982590727985
    Total Energy =                      -1188.1198259072798464
  @DF-RKS Final Energy: -1188.11907269645303
    Total Energy =                      -1188.1190726964530313
  @DF-RKS Final Energy: -1188.11964981093752
    Total Energy =                      -1188.1196498109375170
  Basis Set: (6-31+G* AUX)
    Blend: HEAVY-AUG-CC-PVDZ-JKFIT
  Basis Set: 6-31+G*
    Blend: 6-31+G*
  Basis Set: (6-31+G* AUX)
    Blend: HEAVY-AUG-CC-PVDZ-JKFIT
  @DF-RKS Final Energy: -1188.11982613688974
    Total Energy =                      -1188.1198261368897420
  Basis Set: 6-31+G*
    Blend: 6-31+G*
  Basis Set: (6-31+G* AUX)
    Blend: HEAVY-AUG-CC-PVDZ-JKFIT
  Charge       = 0
  Multiplicity = 1
  Basis Set: 6-31+G*
    Blend: 6-31+G*
  Basis Set: (6-31+G* AUX)
    Blend: HEAVY-AUG-CC-PVDZ-JKFIT

    Orbital Energies [Eh]
    ---------------------

    Doubly Occupied:

       1A    -89.072818     2A    -24.875620     3A    -24.874399
       4A    -19.308403     5A    -19.295381     6A    -14.544280
       7A    -10.503467     8A    -10.455902     9A    -10.433125
      10A    -10.408960    11A    -10.380960    12A    -10.354379
      13A    -10.351923    14A    -10.351534    15A    -10.348375
      16A    -10.342997    17A     -8.089947    18A     -6.040732
      19A     -6.036698    20A     -6.029638    21A     -1.394557
      22A     -1.333481    23A     -1.196489    24A     -1.188281
      25A     -1.102454    26A     -1.006359    27A     -0.940426
      28A     -0.906180    29A     -0.890373    30A     -0.867462
      31A     -0.793855    32A     -0.769253    33A     -0.756860
      34A     -0.743343    35A     -0.699689    36A     -0.685242
      37A     -0.673683    38A     -0.648612    39A     -0.631726
      40A     -0.593088    41A     -0.582975    42A     -0.571894
      43A     -0.564284    44A     -0.560170    45A     -0.558499
      46A     -0.554610    47A     -0.539811    48A     -0.538032
      49A     -0.525704    50A     -0.519973    51A     -0.511825
      52A     -0.500630    53A     -0.496908    54A     -0.480354
      55A     -0.477210    56A     -0.443333    57A     -0.425282
      58A     -0.398429    59A     -0.376668    60A     -0.368380
      61A     -0.342365    62A     -0.329257

  @DF-RKS Final Energy: -1188.11983779099319

   => Energetics <=

    Nuclear Repulsion Energy =           1189.2203335046506254
    One-Electron Energy =               -3992.3699695481682284
    Two-Electron Energy =                1704.5941947138192063
    DFT Exchange-Correlation Energy =     -89.5507062652623205
    Empirical Dispersion Energy =          -0.0136901960326037
    VV10 Nonlocal Energy =                  0.0000000000000000
    Total Energy =                      -1188.1198377909934152

  Dipole Moment: [D]
     X:     6.8952      Y:    -0.7759      Z:    -0.3283     Total:     6.9465

    Molecular point group: c1
  Basis Set: 6-31+G*
    Blend: 6-31+G*
  Basis Set: (6-31+G* AUX)
    Blend: HEAVY-AUG-CC-PVDZ-JKFIT

  -Total Gradient:
     Atom            X                  Y                   Z
    ------   -----------------  -----------------  -----------------
       1       -0.000011043049     0.000082944223    -0.000229816101
       2        0.000077989506     0.000072055604     0.000099183629
       3        0.000599670967    -0.000070240505     0.000597554900
       4       -0.000598537154    -0.000041430912    -0.000499175944
       5        0.000070589253     0.000063219191    -0.000524175156
       6        0.000220834187    -0.000149178260     0.000666053721
       7       -0.000184607468    -0.000379819576    -0.000298950591
       8        0.000376315684     0.000048845578    -0.000067010637
       9        0.000173546220     0.000325378055     0.001711918617
      10       -0.001344198846    -0.000826631452    -0.005247101331
      11        0.000914667780     0.000257200112     0.002093581051
      12       -0.000093442322     0.000233914179     0.000099585656
      13        0.000496828094     0.000615855960     0.001186860390
      14       -0.000196235282    -0.000411414437     0.000266400612
      15        0.000087835939    -0.000067079841     0.000129245620
      16        0.000019045205    -0.000012262129     0.000068629086
      17       -0.000024150775     0.000011443232     0.000009930589
      18       -0.000096846446    -0.000105264909    -0.000015450181
      19       -0.000020921824     0.000043269055    -0.000001615368
      20       -0.000029389244     0.000007651339    -0.000020371485
      21        0.000238739422    -0.000034638893    -0.000006371189
      22        0.000021373295     0.000006706374     0.000013113444
      23        0.000037649448     0.000002875557     0.000060308415

  **** Optimization is complete! (in 2 steps) ****
    Final optimized geometry and variables:
    Molecular point group: c1

    Geometry (in Angstrom), charge = 0, multiplicity = 1:

    N           -0.856827768327    -1.548236143409     0.184466251050
    C           -2.161216951960    -1.306487189283     0.525026302327
    C           -2.573330633694     0.182984665023     0.603837546454
    F           -3.685064154203     0.342261753483    -0.147319608723
    F           -2.892700921623     0.436544462109     1.900035782363
    C           -1.529388219789     1.247994854230     0.171809150127
    C           -0.177200987032     0.768602410890    -0.150676590173
    C            0.829476823395     1.686263892278    -0.479041368774
    C            2.107021209823     1.258950714826    -0.788269691828
    C            2.401250185416    -0.113559565172    -0.769006635883
    C            1.415224438857    -1.034739024648    -0.429422118155
    C            0.119606186966    -0.600999524386    -0.135017028439
    S            4.044996758425    -0.707459831201    -1.126900590201
    C            4.955632369955     0.027950746698     0.267296861466
    O           -2.951554718447    -2.188061318386     0.768720318310
    O           -1.871435971730     2.407785040619     0.138998667959
    H            2.873811273520     1.975488316349    -1.063901494416
    H            0.572404566975     2.740837684448    -0.491166080596
    H           -0.604524838362    -2.528934865385     0.156858619505
    H            1.658406072740    -2.093002689727    -0.393706944218
    H            4.965164556370     1.118786965599     0.212744983834
    H            4.532008077663    -0.296233172785     1.220388777062
    H            5.983145345036    -0.336542925094     0.190219155154

*** Psi4 exiting successfully. Buy a developer a beer!
