                               Psi4 1.3.2 release

  ==> Input File <==

--------------------------------------------------------------------------
molecule {
0 1
 N   -0.668639   -1.353214   -0.158450
 C   -2.032191   -1.221593   -0.175178
 C   -2.584676    0.221489    0.069767
 F   -3.307115    0.581085   -1.045617
 F   -3.448129    0.158309    1.140728
 C   -1.539211    1.355409    0.354309
 C   -0.104295    0.989858    0.322976
 C    0.882487    1.972986    0.559585
 C    2.244266    1.647408    0.534013
 C    2.656893    0.317537    0.262231
 C    1.671291   -0.669103    0.037518
 C    0.302692   -0.348347    0.064015
 S    4.351929   -0.195702    0.237408
 C    4.639545   -0.701639   -1.478783
 O   -2.744651   -2.194214   -0.378349
 O   -1.911163    2.502307    0.583810
 H    2.972370    2.434303    0.729164
 H    0.556162    2.992892    0.765485
 H   -0.374649   -2.305669   -0.326428
 H    1.975254   -1.700293   -0.146524
 H    4.030629   -1.580751   -1.709367
 H    4.370720    0.120939   -2.148865
 H    5.698516   -0.946050   -1.604410
}
set optking {
  frozen_dihedral = ("
    11 10 13 14
    9 10 13 14
    21 14 13 10
  ")
}
set {
  geom_maxiter 400
  g_convergence GAU_LOOSE
  dynamic_level 1
}
memory 16GB
set_num_threads(8)
psi4_io.set_default_path("/scratch/Psi4-ligand")
for _ in range(1):
  try:
    set opt_coordinates both
    optimize('wb97x-d/6-31+G*')
    break
  except OptimizationConvergenceError:
    break
  else:
    try:
      set opt_coordinates cartesian
      optimize('wb97x-d/6-31+G*')
      break
    except OptimizationConvergenceError:
      pass
clean()
--------------------------------------------------------------------------

    Molecular point group: c1
  Charge       = 0
  Multiplicity = 1
  Basis Set: 6-31+G*
    Blend: 6-31+G*
  Basis Set: (6-31+G* AUX)
    Blend: HEAVY-AUG-CC-PVDZ-JKFIT
  @DF-RKS Final Energy: -1188.11225319193363
    Total Energy =                      -1188.1122531919336325
    Molecular point group: c1
  Basis Set: 6-31+G*
    Blend: 6-31+G*
  Basis Set: (6-31+G* AUX)
    Blend: HEAVY-AUG-CC-PVDZ-JKFIT
  Basis Set: 6-31+G*
    Blend: 6-31+G*
  Basis Set: (6-31+G* AUX)
    Blend: HEAVY-AUG-CC-PVDZ-JKFIT
  @DF-RKS Final Energy: -1187.60011773995348
    Total Energy =                      -1187.6001177399534754
  Basis Set: 6-31+G*
    Blend: 6-31+G*
  Basis Set: (6-31+G* AUX)
    Blend: HEAVY-AUG-CC-PVDZ-JKFIT
  Basis Set: 6-31+G*
    Blend: 6-31+G*
  @DF-RKS Final Energy: -1187.82061845669250
    Total Energy =                      -1187.8206184566925003
  @DF-RKS Final Energy: -1188.05900394533091
    Total Energy =                      -1188.0590039453306872
  @DF-RKS Final Energy: -1188.11102467342334
    Total Energy =                      -1188.1110246734231168
  @DF-RKS Final Energy: -1188.11846803265212
    Total Energy =                      -1188.1184680326521175
  @DF-RKS Final Energy: -1188.11914195172290
    Total Energy =                      -1188.1191419517228951
  @DF-RKS Final Energy: -1188.11816349440642
    Total Energy =                      -1188.1181634944064172
  @DF-RKS Final Energy: -1188.11914099751561
    Total Energy =                      -1188.1191409975156148
  @DF-RKS Final Energy: -1188.11912939088188
    Total Energy =                      -1188.1191293908816533
  @DF-RKS Final Energy: -1188.11931420930546
    Total Energy =                      -1188.1193142093054576
  @DF-RKS Final Energy: -1188.11936103205153
    Total Energy =                      -1188.1193610320515290
  @DF-RKS Final Energy: -1188.11935102924826
    Total Energy =                      -1188.1193510292482642
  @DF-RKS Final Energy: -1188.11936589654829
    Total Energy =                      -1188.1193658965482882
  @DF-RKS Final Energy: -1188.11937343580189
    Total Energy =                      -1188.1193734358018901
  @DF-RKS Final Energy: -1188.11939662275677
    Total Energy =                      -1188.1193966227567671
  @DF-RKS Final Energy: -1188.11938117589989
    Total Energy =                      -1188.1193811758998891
  @DF-RKS Final Energy: -1188.11939752221815
    Total Energy =                      -1188.1193975222179233
  @DF-RKS Final Energy: -1188.11938325544861
    Total Energy =                      -1188.1193832554483834
  Basis Set: (6-31+G* AUX)
    Blend: HEAVY-AUG-CC-PVDZ-JKFIT
  Basis Set: 6-31+G*
    Blend: 6-31+G*
  Basis Set: (6-31+G* AUX)
    Blend: HEAVY-AUG-CC-PVDZ-JKFIT
  @DF-RKS Final Energy: -1188.11938923612070
    Total Energy =                      -1188.1193892361209237
  Basis Set: 6-31+G*
    Blend: 6-31+G*
  Basis Set: (6-31+G* AUX)
    Blend: HEAVY-AUG-CC-PVDZ-JKFIT
  Charge       = 0
  Multiplicity = 1
  Basis Set: 6-31+G*
    Blend: 6-31+G*
  Basis Set: (6-31+G* AUX)
    Blend: HEAVY-AUG-CC-PVDZ-JKFIT

    Orbital Energies [Eh]
    ---------------------

    Doubly Occupied:

       1A    -89.072788     2A    -24.875781     3A    -24.874357
       4A    -19.309082     5A    -19.296007     6A    -14.544666
       7A    -10.504030     8A    -10.456575     9A    -10.434024
      10A    -10.409209    11A    -10.380757    12A    -10.354966
      13A    -10.352445    14A    -10.351903    15A    -10.348716
      16A    -10.341923    17A     -8.089996    18A     -6.040785
      19A     -6.036736    20A     -6.029670    21A     -1.393218
      22A     -1.332844    23A     -1.197539    24A     -1.188888
      25A     -1.102829    26A     -1.006415    27A     -0.941048
      28A     -0.905689    29A     -0.891575    30A     -0.867392
      31A     -0.793290    32A     -0.771376    33A     -0.757174
      34A     -0.742010    35A     -0.699594    36A     -0.684425
      37A     -0.673126    38A     -0.649269    39A     -0.631199
      40A     -0.593618    41A     -0.582020    42A     -0.572194
      43A     -0.565042    44A     -0.562366    45A     -0.558389
      46A     -0.554654    47A     -0.540950    48A     -0.535343
      49A     -0.529224    50A     -0.520213    51A     -0.512530
      52A     -0.503446    53A     -0.494969    54A     -0.480625
      55A     -0.474864    56A     -0.444135    57A     -0.426153
      58A     -0.398972    59A     -0.377274    60A     -0.368776
      61A     -0.341302    62A     -0.330116

  @DF-RKS Final Energy: -1188.11939826893854

   => Energetics <=

    Nuclear Repulsion Energy =           1190.1104908860445448
    One-Electron Energy =               -3994.1246643455160665
    Two-Electron Energy =                1705.4576112420663776
    DFT Exchange-Correlation Energy =     -89.5491513531787291
    Empirical Dispersion Energy =          -0.0136846983544090
    VV10 Nonlocal Energy =                  0.0000000000000000
    Total Energy =                      -1188.1193982689385393

  Dipole Moment: [D]
     X:     5.3146      Y:     0.9110      Z:    -4.2428     Total:     6.8612

    Molecular point group: c1
  Basis Set: 6-31+G*
    Blend: 6-31+G*
  Basis Set: (6-31+G* AUX)
    Blend: HEAVY-AUG-CC-PVDZ-JKFIT

  -Total Gradient:
     Atom            X                  Y                   Z
    ------   -----------------  -----------------  -----------------
       1        0.001057150093     0.000762079952     0.000261097197
       2       -0.001958231904    -0.001904206284    -0.000680216765
       3        0.001257218627    -0.000257738847    -0.001990048744
       4       -0.001148997785     0.000436307385    -0.000892197676
       5       -0.000379668653    -0.001236869179     0.002831771051
       6        0.000120961233     0.001239639162     0.000960499160
       7        0.000737453020    -0.000606556085    -0.000723934597
       8       -0.000412814763    -0.000058620179     0.000326688020
       9        0.000663053059     0.000584205138    -0.000345635257
      10       -0.000017517070     0.000247393720    -0.000141390779
      11        0.000794725926    -0.000550107501    -0.000025648924
      12       -0.000303673056    -0.000018361877    -0.000032230814
      13       -0.000893136498    -0.000743728123    -0.001783841845
      14        0.000312144068     0.001176318942     0.002042035640
      15        0.000899146020     0.001522628096     0.000287381656
      16       -0.000256676473     0.000222729193    -0.000025589850
      17        0.000050754193    -0.000078311950    -0.000091411521
      18        0.000232979501    -0.000351875771    -0.000351653074
      19        0.000079392132    -0.000159295015    -0.000077909229
      20       -0.000196847905     0.000436874537     0.000308398234
      21        0.000217209507    -0.000066667168    -0.000183393347
      22        0.000496771167    -0.000651141210     0.000041722582
      23       -0.000216881387     0.000020531624    -0.000103178572

  **** Optimization is complete! (in 1 steps) ****
    Final optimized geometry and variables:
    Molecular point group: c1

    Geometry (in Angstrom), charge = 0, multiplicity = 1:

    N           -0.525571794372    -1.563758369103    -0.377252958026
    C           -1.758843722403    -1.792179522608     0.175844154719
    C           -2.333703111296    -0.641680198938     1.036146063182
    F           -3.452221469611    -0.195557471333     0.401409315673
    F           -2.698928190575    -1.164370296048     2.230622382126
    C           -1.427476715235     0.595830207315     1.298887038966
    C           -0.139672228352     0.643279897682     0.586100048307
    C            0.692783249380     1.759004370316     0.724462939194
    C            1.906325569124     1.830679423387     0.059789509267
    C            2.310799900526     0.761579621887    -0.750592677432
    C            1.500582278617    -0.364676027518    -0.881644252996
    C            0.270202597889    -0.424818795672    -0.226839420839
    S            3.893234743117     0.832171639336    -1.569376131996
    C            3.358588113152     0.845221128406    -3.303902414367
    O           -2.377777596893    -2.814663747264     0.003878590020
    O           -1.829792215537     1.454262872731     2.049405259475
    H            2.540620892485     2.705351257474     0.154265794814
    H            0.354909194536     2.572276711752     1.358107239238
    H           -0.175455795126    -2.323840615045    -0.948498336171
    H            1.833828104987    -1.203918329014    -1.485084911945
    H            2.868684047937    -0.090084947802    -3.585285869366
    H            2.693835689043     1.687896188396    -3.499568551337
    H            4.262613759879     0.958864748478    -3.907317336464

*** Psi4 exiting successfully. Buy a developer a beer!
