                               Psi4 1.3.2 release

  ==> Input File <==

--------------------------------------------------------------------------
molecule {
0 1
 N   -0.623917   -1.562177    0.304061
 C   -1.947135   -1.477281    0.653022
 C   -2.463805   -0.030333    0.810837
 F   -3.788349   -0.001557    0.664036
 F   -2.161774    0.333469    2.105076
 C   -1.778360    1.027949   -0.088026
 C   -0.352688    0.772122   -0.352820
 C    0.470959    1.790326   -0.842601
 C    1.813145    1.558668   -1.092361
 C    2.343782    0.275614   -0.894578
 C    1.531207   -0.749543   -0.411731
 C    0.185551   -0.507536   -0.137604
 S    4.072850    0.004972   -1.226943
 C    4.645328   -0.657594    0.366792
 O   -2.639211   -2.440715    0.881352
 O   -2.394299    1.996324   -0.466826
 H    2.458329    2.359863   -1.436788
 H    0.035021    2.772498   -0.998218
 H   -0.249373   -2.502920    0.280868
 H    1.935153   -1.749041   -0.274644
 H    4.566834    0.096908    1.152547
 H    4.106862   -1.563082    0.653900
 H    5.698912   -0.912675    0.225400
}
memory 16GB
set_num_threads(8)
psi4_io.set_default_path("/scratch/Psi4-ligand")
set freeze_core True
E, wfn = energy('wb97x-d/6-311++g**',return_wfn=True)
oeprop(wfn,"WIBERG_LOWDIN_INDICES")
clean()
--------------------------------------------------------------------------

    Molecular point group: c1

    Geometry (in Angstrom), charge = 0, multiplicity = 1:

       Center              X                  Y                   Z               Mass
    ------------   -----------------  -----------------  -----------------  -----------------
         N           -0.623917040319    -1.562177067794     0.304060946962    14.003074004430
         C           -1.947135040319    -1.477281067794     0.653021946962    12.000000000000
         C           -2.463805040319    -0.030333067794     0.810836946962    12.000000000000
         F           -3.788349040319    -0.001557067794     0.664035946962    18.998403162730
         F           -2.161774040319     0.333468932206     2.105075946962    18.998403162730
         C           -1.778360040319     1.027948932206    -0.088026053038    12.000000000000
         C           -0.352688040319     0.772121932206    -0.352820053038    12.000000000000
         C            0.470958959681     1.790325932206    -0.842601053038    12.000000000000
         C            1.813144959681     1.558667932206    -1.092361053038    12.000000000000
         C            2.343781959681     0.275613932206    -0.894578053038    12.000000000000
         C            1.531206959681    -0.749543067794    -0.411731053038    12.000000000000
         C            0.185550959681    -0.507536067794    -0.137604053038    12.000000000000
         S            4.072849959681     0.004971932206    -1.226943053038    31.972071174400
         C            4.645327959681    -0.657594067794     0.366791946962    12.000000000000
         O           -2.639211040319    -2.440715067794     0.881351946962    15.994914619570
         O           -2.394299040319     1.996323932206    -0.466826053038    15.994914619570
         H            2.458328959681     2.359862932206    -1.436788053038     1.007825032230
         H            0.035020959681     2.772497932206    -0.998218053038     1.007825032230
         H           -0.249373040319    -2.502920067794     0.280867946962     1.007825032230
         H            1.935152959681    -1.749041067794    -0.274644053038     1.007825032230
         H            4.566833959681     0.096907932206     1.152546946962     1.007825032230
         H            4.106861959681    -1.563082067794     0.653899946962     1.007825032230
         H            5.698911959681    -0.912675067794     0.225399946962     1.007825032230

  Charge       = 0
  Multiplicity = 1
  Basis Set: 6-311++G**
    Blend: 6-311++G**
  Basis Set: (6-311++G** AUX)
    Blend: AUG-CC-PVTZ-JKFIT

    Orbital Energies [Eh]
    ---------------------

    Doubly Occupied:

       1A    -89.042260     2A    -24.845274     3A    -24.844423
       4A    -19.278525     5A    -19.266014     6A    -14.518850
       7A    -10.488625     8A    -10.440471     9A    -10.417523
      10A    -10.392845    11A    -10.365687    12A    -10.337641
      13A    -10.335275    14A    -10.335048    15A    -10.334880
      16A    -10.324039    17A     -8.082809    18A     -6.032385
      19A     -6.028267    20A     -6.021478    21A     -1.395378
      22A     -1.333433    23A     -1.196880    24A     -1.188454
      25A     -1.101338    26A     -1.005872    27A     -0.941286
      28A     -0.906860    29A     -0.891305    30A     -0.867490
      31A     -0.793863    32A     -0.771037    33A     -0.757900
      34A     -0.742112    35A     -0.700553    36A     -0.683236
      37A     -0.675002    38A     -0.648843    39A     -0.632213
      40A     -0.595366    41A     -0.585224    42A     -0.574853
      43A     -0.566170    44A     -0.563347    45A     -0.559259
      46A     -0.551903    47A     -0.542006    48A     -0.536344
      49A     -0.527625    50A     -0.520053    51A     -0.516122
      52A     -0.503453    53A     -0.496573    54A     -0.482299
      55A     -0.475035    56A     -0.444805    57A     -0.427762
      58A     -0.399823    59A     -0.382524    60A     -0.369794
      61A     -0.343521    62A     -0.326603

  @DF-RKS Final Energy: -1188.33201617687496

   => Energetics <=

    Nuclear Repulsion Energy =           1194.9902143062236064
    One-Electron Energy =               -4004.8635644263767972
    Two-Electron Energy =                1711.2875544653256839
    DFT Exchange-Correlation Energy =     -89.7323609179126436
    Empirical Dispersion Energy =          -0.0138596041347823
    VV10 Nonlocal Energy =                  0.0000000000000000
    Total Energy =                      -1188.3320161768749585

  Dipole Moment: [D]
     X:     6.5688      Y:    -1.1165      Z:    -0.3243     Total:     6.6709

*** Psi4 exiting successfully. Buy a developer a beer!
