                               Psi4 1.3.2 release

  ==> Input File <==

--------------------------------------------------------------------------
molecule {
0 1
 N   -1.006855   -1.477269    0.197895
 C   -2.293023   -1.155293    0.543752
 C   -2.646129    0.369139    0.525875
 F   -3.612352    0.556517   -0.436485
 F   -3.190730    0.685340    1.751256
 C   -1.477775    1.374591    0.237635
 C   -0.155491    0.806639   -0.112645
 C    0.929562    1.662849   -0.402540
 C    2.182631    1.146424   -0.755765
 C    2.386568   -0.258125   -0.819685
 C    1.310561   -1.113478   -0.495606
 C    0.050508   -0.600191   -0.142048
 S    3.915313   -1.058056   -1.233687
 C    5.216733    0.009393   -0.559916
 O   -3.094434   -2.032847    0.830678
 O   -1.671871    2.585675    0.283265
 H    2.982498    1.848386   -0.986565
 H    0.764132    2.739490   -0.353507
 H   -0.843773   -2.474729    0.217414
 H    1.456631   -2.194234   -0.526808
 H    5.215124    0.969453   -1.084095
 H    5.035204    0.169830    0.507607
 H    6.185001   -0.481565   -0.696989
}
set optking {
  frozen_dihedral = ("
    11 10 13 14
    9 10 13 14
    21 14 13 10
  ")
}
set {
  geom_maxiter 400
  g_convergence GAU_LOOSE
  dynamic_level 1
}
memory 16GB
set_num_threads(8)
psi4_io.set_default_path("/scratch/Psi4-ligand")
for _ in range(1):
  try:
    set opt_coordinates both
    optimize('wb97x-d/6-31+G*')
    break
  except OptimizationConvergenceError:
    break
  else:
    try:
      set opt_coordinates cartesian
      optimize('wb97x-d/6-31+G*')
      break
    except OptimizationConvergenceError:
      pass
clean()
--------------------------------------------------------------------------

    Molecular point group: c1
  Charge       = 0
  Multiplicity = 1
  Basis Set: 6-31+G*
    Blend: 6-31+G*
  Basis Set: (6-31+G* AUX)
    Blend: HEAVY-AUG-CC-PVDZ-JKFIT
  @DF-RKS Final Energy: -1188.11448642059554
    Total Energy =                      -1188.1144864205955400
    Molecular point group: c1
  Basis Set: 6-31+G*
    Blend: 6-31+G*
  Basis Set: (6-31+G* AUX)
    Blend: HEAVY-AUG-CC-PVDZ-JKFIT
  Basis Set: 6-31+G*
    Blend: 6-31+G*
  Basis Set: (6-31+G* AUX)
    Blend: HEAVY-AUG-CC-PVDZ-JKFIT
  @DF-RKS Final Energy: -1188.12074786290236
    Total Energy =                      -1188.1207478629023626
  Basis Set: 6-31+G*
    Blend: 6-31+G*
  Basis Set: (6-31+G* AUX)
    Blend: HEAVY-AUG-CC-PVDZ-JKFIT
  Basis Set: 6-31+G*
    Blend: 6-31+G*
  @DF-RKS Final Energy: -1188.12100000098326
    Total Energy =                      -1188.1210000009834857
  @DF-RKS Final Energy: -1188.12095428739190
    Total Energy =                      -1188.1209542873921237
  @DF-RKS Final Energy: -1188.12107276694564
    Total Energy =                      -1188.1210727669456446
  @DF-RKS Final Energy: -1188.12114743588336
    Total Energy =                      -1188.1211474358833584
  @DF-RKS Final Energy: -1188.12157843181581
    Total Energy =                      -1188.1215784318158057
  @DF-RKS Final Energy: -1188.12053980444898
    Total Energy =                      -1188.1205398044492085
  @DF-RKS Final Energy: -1188.12157998497855
    Total Energy =                      -1188.1215799849785526
  @DF-RKS Final Energy: -1188.12156185968911
    Total Energy =                      -1188.1215618596891090
  @DF-RKS Final Energy: -1188.12170710732335
    Total Energy =                      -1188.1217071073233456
  @DF-RKS Final Energy: -1188.12187519745794
    Total Energy =                      -1188.1218751974579391
  @DF-RKS Final Energy: -1188.12198352988094
    Total Energy =                      -1188.1219835298809357
  Basis Set: (6-31+G* AUX)
    Blend: HEAVY-AUG-CC-PVDZ-JKFIT
  Basis Set: 6-31+G*
    Blend: 6-31+G*
  Basis Set: (6-31+G* AUX)
    Blend: HEAVY-AUG-CC-PVDZ-JKFIT
  @DF-RKS Final Energy: -1188.12208373057160
    Total Energy =                      -1188.1220837305718305
  Basis Set: 6-31+G*
    Blend: 6-31+G*
  Basis Set: (6-31+G* AUX)
    Blend: HEAVY-AUG-CC-PVDZ-JKFIT
  Charge       = 0
  Multiplicity = 1
  Basis Set: 6-31+G*
    Blend: 6-31+G*
  Basis Set: (6-31+G* AUX)
    Blend: HEAVY-AUG-CC-PVDZ-JKFIT

    Orbital Energies [Eh]
    ---------------------

    Doubly Occupied:

       1A    -89.078806     2A    -24.874979     3A    -24.873294
       4A    -19.306524     5A    -19.295119     6A    -14.540243
       7A    -10.500429     8A    -10.454030     9A    -10.430223
      10A    -10.405469    11A    -10.383501    12A    -10.352684
      13A    -10.350698    14A    -10.348915    15A    -10.347837
      16A    -10.341225    17A     -8.096330    18A     -6.047060
      19A     -6.042728    20A     -6.036319    21A     -1.393789
      22A     -1.332455    23A     -1.195027    24A     -1.185567
      25A     -1.099300    26A     -1.005074    27A     -0.942250
      28A     -0.907465    29A     -0.888747    30A     -0.868333
      31A     -0.796467    32A     -0.766377    33A     -0.754969
      34A     -0.744080    35A     -0.698041    36A     -0.681648
      37A     -0.672158    38A     -0.645900    39A     -0.630959
      40A     -0.592290    41A     -0.585777    42A     -0.571240
      43A     -0.563466    44A     -0.560067    45A     -0.557991
      46A     -0.549483    47A     -0.546040    48A     -0.536062
      49A     -0.523520    50A     -0.515980    51A     -0.510571
      52A     -0.499878    53A     -0.497098    54A     -0.482281
      55A     -0.475816    56A     -0.443818    57A     -0.427871
      58A     -0.396606    59A     -0.390171    60A     -0.366236
      61A     -0.340515    62A     -0.321076

  @DF-RKS Final Energy: -1188.12211053250849

   => Energetics <=

    Nuclear Repulsion Energy =           1192.0520192266230879
    One-Electron Energy =               -3998.0723467880452517
    Two-Electron Energy =                1707.4674363924741556
    DFT Exchange-Correlation Energy =     -89.5553981807773596
    Empirical Dispersion Energy =          -0.0138211827831737
    VV10 Nonlocal Energy =                  0.0000000000000000
    Total Energy =                      -1188.1221105325084864

  Dipole Moment: [D]
     X:     7.3793      Y:    -0.7798      Z:    -1.1457     Total:     7.5083

    Molecular point group: c1
  Basis Set: 6-31+G*
    Blend: 6-31+G*
  Basis Set: (6-31+G* AUX)
    Blend: HEAVY-AUG-CC-PVDZ-JKFIT

  -Total Gradient:
     Atom            X                  Y                   Z
    ------   -----------------  -----------------  -----------------
       1        0.000143872166     0.000111909258     0.000070663649
       2       -0.000284218078    -0.000003382212     0.000192880153
       3        0.000223980566     0.000010039780    -0.000171851639
       4        0.000076055760    -0.000084295075     0.000152726200
       5        0.000174157708    -0.000075615439    -0.000127212802
       6       -0.000129365381    -0.000706681535     0.000380529519
       7        0.000103066699     0.000864467293    -0.000168917276
       8       -0.000793043081    -0.000054641823     0.000268578991
       9        0.000865550006    -0.000811920544     0.001488723588
      10       -0.001387802420     0.001034503326    -0.007110484250
      11        0.000277223435    -0.000243471092     0.003253069966
      12        0.000963748075    -0.000695813936    -0.000390333148
      13        0.000043723078     0.000251674740     0.001612949223
      14        0.001386816562    -0.000814879433    -0.000138540320
      15        0.000113092512     0.000032267494    -0.000153999333
      16        0.000027465363     0.000407043226    -0.000094868940
      17        0.000062951278     0.000073997839     0.000029324930
      18        0.000185069678    -0.000006526231    -0.000020725723
      19       -0.000222525024     0.000016411061     0.000015930094
      20        0.000080447260    -0.000020536556    -0.000035815182
      21       -0.000836701318     0.000276749921     0.000797429135
      22       -0.000051962608    -0.000106176705    -0.000023490008
      23        0.000021965658    -0.000081596329    -0.000020163222

  **** Optimization is complete! (in 6 steps) ****
    Final optimized geometry and variables:
    Molecular point group: c1

    Geometry (in Angstrom), charge = 0, multiplicity = 1:

    N           -0.921710832857    -1.519118975580     0.384900256711
    C           -2.189206137137    -1.195656086992     0.794760266983
    C           -2.576278360684     0.279226436126     0.545677846415
    F           -3.073141697618     0.322349717914    -0.736144991031
    F           -3.546883005406     0.640025563224     1.387683871900
    C           -1.409078157290     1.295872830667     0.576919864926
    C           -0.122655959722     0.766876068656     0.102481390534
    C            0.925025529979     1.633163319240    -0.222066950928
    C            2.145355462001     1.149241058644    -0.660531132576
    C            2.342810192297    -0.235311951661    -0.768297501405
    C            1.317461657587    -1.113328925713    -0.406077611096
    C            0.082684163437    -0.620326110950     0.006662467467
    S            3.865757592033    -0.962555257012    -1.303895473944
    C            5.109154300347     0.181650623911    -0.641066445480
    O           -2.967395073241    -2.000916059854     1.248321969200
    O           -1.609587006509     2.439844971884     0.914421794958
    H            2.929510620011     1.846086149081    -0.933236699099
    H            0.753140158629     2.701488416910    -0.133060636057
    H           -0.691578607409    -2.502973253598     0.454232689353
    H            1.490214852922    -2.185730033050    -0.441789762679
    H            5.051157261884     1.169558683071    -1.102224114876
    H            5.012625525773     0.269457527906     0.443567847158
    H            6.079116936291    -0.259900350081    -0.881386402413

*** Psi4 exiting successfully. Buy a developer a beer!
