                               Psi4 1.3.2 release

  ==> Input File <==

--------------------------------------------------------------------------
molecule {
0 1
 N   -0.506573   -1.640983   -0.299840
 C   -1.809139   -1.801171    0.091349
 C   -2.471431   -0.572510    0.759917
 F   -3.571034   -0.261459    0.032542
 F   -2.872132   -0.953566    1.997214
 C   -1.619660    0.718125    0.913700
 C   -0.229940    0.669935    0.431060
 C    0.593608    1.794477    0.563080
 C    1.904116    1.770167    0.118313
 C    2.408021    0.608188   -0.483323
 C    1.601848   -0.518861   -0.615497
 C    0.281932   -0.495346   -0.158446
 S    4.105440    0.543099   -1.040804
 C    3.900571    1.265281   -2.701596
 O   -2.421435   -2.831543   -0.066928
 O   -2.135685    1.689078    1.418163
 H    2.545573    2.637122    0.237696
 H    0.176763    2.681094    1.030906
 H   -0.093368   -2.459636   -0.730571
 H    2.007398   -1.417868   -1.071823
 H    3.293459    0.617918   -3.338497
 H    3.456024    2.261560   -2.643734
 H    4.902377    1.347977   -3.130816
}
memory 16GB
set_num_threads(8)
psi4_io.set_default_path("/scratch/Psi4-ligand")
set freeze_core True
E, wfn = energy('wb97x-d/6-311++g**',return_wfn=True)
oeprop(wfn,"WIBERG_LOWDIN_INDICES")
clean()
--------------------------------------------------------------------------

    Molecular point group: c1

    Geometry (in Angstrom), charge = 0, multiplicity = 1:

       Center              X                  Y                   Z               Mass
    ------------   -----------------  -----------------  -----------------  -----------------
         N           -0.506573098530    -1.640982873052    -0.299840115892    14.003074004430
         C           -1.809139098530    -1.801170873052     0.091348884108    12.000000000000
         C           -2.471431098530    -0.572509873052     0.759916884108    12.000000000000
         F           -3.571034098530    -0.261458873052     0.032541884108    18.998403162730
         F           -2.872132098530    -0.953565873052     1.997213884108    18.998403162730
         C           -1.619660098530     0.718125126948     0.913699884108    12.000000000000
         C           -0.229940098530     0.669935126948     0.431059884108    12.000000000000
         C            0.593607901470     1.794477126948     0.563079884108    12.000000000000
         C            1.904115901470     1.770167126948     0.118312884108    12.000000000000
         C            2.408020901470     0.608188126948    -0.483323115892    12.000000000000
         C            1.601847901470    -0.518860873052    -0.615497115892    12.000000000000
         C            0.281931901470    -0.495345873052    -0.158446115892    12.000000000000
         S            4.105439901470     0.543099126948    -1.040804115892    31.972071174400
         C            3.900570901470     1.265281126948    -2.701596115892    12.000000000000
         O           -2.421435098530    -2.831542873052    -0.066928115892    15.994914619570
         O           -2.135685098530     1.689078126948     1.418162884108    15.994914619570
         H            2.545572901470     2.637122126948     0.237695884108     1.007825032230
         H            0.176762901470     2.681094126948     1.030905884108     1.007825032230
         H           -0.093368098530    -2.459635873052    -0.730571115892     1.007825032230
         H            2.007397901470    -1.417867873052    -1.071823115892     1.007825032230
         H            3.293458901470     0.617918126948    -3.338497115892     1.007825032230
         H            3.456023901470     2.261560126948    -2.643734115892     1.007825032230
         H            4.902376901470     1.347977126948    -3.130816115892     1.007825032230

  Charge       = 0
  Multiplicity = 1
  Basis Set: 6-311++G**
    Blend: 6-311++G**
  Basis Set: (6-311++G** AUX)
    Blend: AUG-CC-PVTZ-JKFIT

    Orbital Energies [Eh]
    ---------------------

    Doubly Occupied:

       1A    -89.038655     2A    -24.844097     3A    -24.843954
       4A    -19.278343     5A    -19.264568     6A    -14.521397
       7A    -10.490442     8A    -10.440738     9A    -10.418943
      10A    -10.394943    11A    -10.364743    12A    -10.341270
      13A    -10.336824    14A    -10.336328    15A    -10.332169
      16A    -10.326685    17A     -8.079207    18A     -6.028787
      19A     -6.024893    20A     -6.017653    21A     -1.394522
      22A     -1.333054    23A     -1.196581    24A     -1.188907
      25A     -1.102917    26A     -1.007171    27A     -0.940178
      28A     -0.905925    29A     -0.891218    30A     -0.867292
      31A     -0.793027    32A     -0.771071    33A     -0.757648
      34A     -0.743129    35A     -0.701151    36A     -0.686600
      37A     -0.675049    38A     -0.649933    39A     -0.632555
      40A     -0.595122    41A     -0.583461    42A     -0.573669
      43A     -0.566202    44A     -0.561458    45A     -0.560371
      46A     -0.555463    47A     -0.539835    48A     -0.535259
      49A     -0.529571    50A     -0.520783    51A     -0.513298
      52A     -0.502815    53A     -0.497825    54A     -0.480549
      55A     -0.477135    56A     -0.444398    57A     -0.426354
      58A     -0.400293    59A     -0.372173    60A     -0.370466
      61A     -0.342698    62A     -0.335423

  @DF-RKS Final Energy: -1188.33011745413160

   => Energetics <=

    Nuclear Repulsion Energy =           1188.8316526375765534
    One-Electron Energy =               -3992.5634532886360830
    Two-Electron Energy =                1705.1438844331978544
    DFT Exchange-Correlation Energy =     -89.7286168703907521
    Empirical Dispersion Energy =          -0.0135843658789150
    VV10 Nonlocal Energy =                  0.0000000000000000
    Total Energy =                      -1188.3301174541313685

  Dipole Moment: [D]
     X:     5.8479      Y:     1.1251      Z:    -3.3085     Total:     6.8125

*** Psi4 exiting successfully. Buy a developer a beer!
