                               Psi4 1.3.2 release

  ==> Input File <==

--------------------------------------------------------------------------
molecule {
0 1
 N   -1.153345   -1.377093   -0.310259
 C   -2.445896   -0.937256   -0.190506
 C   -2.581010    0.491565    0.382835
 F   -3.738184    1.026717   -0.013081
 F   -2.612884    0.342546    1.748093
 C   -1.397887    1.449946    0.091984
 C   -0.088483    0.795584   -0.012795
 C    1.089929    1.543682    0.046124
 C    2.333547    0.945917   -0.063300
 C    2.420729   -0.440350   -0.258616
 C    1.246603   -1.201478   -0.319192
 C    0.001857   -0.593955   -0.204889
 S    3.905231   -1.384715   -0.410243
 C    5.291549   -0.243466   -0.123223
 O   -3.406402   -1.623577   -0.443379
 O   -1.588564    2.643988    0.031436
 H    3.217567    1.567956   -0.002423
 H    1.006997    2.616563    0.190737
 H   -1.058790   -2.343170   -0.599132
 H    1.308849   -2.278161   -0.457315
 H    5.806636   -0.526771    0.796314
 H    5.980207   -0.327592   -0.965839
 H    4.967451    0.793338   -0.047439
}
memory 16GB
set_num_threads(8)
psi4_io.set_default_path("/scratch/Psi4-ligand")
set freeze_core True
E, wfn = energy('wb97x-d/6-311++g**',return_wfn=True)
oeprop(wfn,"WIBERG_LOWDIN_INDICES")
clean()
--------------------------------------------------------------------------

    Molecular point group: c1

    Geometry (in Angstrom), charge = 0, multiplicity = 1:

       Center              X                  Y                   Z               Mass
    ------------   -----------------  -----------------  -----------------  -----------------
         N           -1.153345135715    -1.377092963027    -0.310259174077    14.003074004430
         C           -2.445896135715    -0.937255963027    -0.190506174077    12.000000000000
         C           -2.581010135715     0.491565036973     0.382834825923    12.000000000000
         F           -3.738184135715     1.026717036973    -0.013081174077    18.998403162730
         F           -2.612884135715     0.342546036973     1.748092825923    18.998403162730
         C           -1.397887135715     1.449946036973     0.091983825923    12.000000000000
         C           -0.088483135715     0.795584036973    -0.012795174077    12.000000000000
         C            1.089928864285     1.543682036973     0.046123825923    12.000000000000
         C            2.333546864285     0.945917036973    -0.063300174077    12.000000000000
         C            2.420728864285    -0.440349963027    -0.258616174077    12.000000000000
         C            1.246602864285    -1.201477963027    -0.319192174077    12.000000000000
         C            0.001856864285    -0.593954963027    -0.204889174077    12.000000000000
         S            3.905230864285    -1.384714963027    -0.410243174077    31.972071174400
         C            5.291548864285    -0.243465963027    -0.123223174077    12.000000000000
         O           -3.406402135715    -1.623576963027    -0.443379174077    15.994914619570
         O           -1.588564135715     2.643988036973     0.031435825923    15.994914619570
         H            3.217566864285     1.567956036973    -0.002423174077     1.007825032230
         H            1.006996864285     2.616563036973     0.190736825923     1.007825032230
         H           -1.058790135715    -2.343169963027    -0.599132174077     1.007825032230
         H            1.308848864285    -2.278160963027    -0.457315174077     1.007825032230
         H            5.806635864285    -0.526770963027     0.796313825923     1.007825032230
         H            5.980206864285    -0.327591963027    -0.965839174077     1.007825032230
         H            4.967450864285     0.793338036973    -0.047439174077     1.007825032230

  Charge       = 0
  Multiplicity = 1
  Basis Set: 6-311++G**
    Blend: 6-311++G**
  Basis Set: (6-311++G** AUX)
    Blend: AUG-CC-PVTZ-JKFIT

    Orbital Energies [Eh]
    ---------------------

    Doubly Occupied:

       1A    -89.052651     2A    -24.841760     3A    -24.839871
       4A    -19.271293     5A    -19.261974     6A    -14.514912
       7A    -10.484251     8A    -10.436314     9A    -10.411676
      10A    -10.389365    11A    -10.372885    12A    -10.340543
      13A    -10.334380    14A    -10.330113    15A    -10.329455
      16A    -10.324208    17A     -8.093236    18A     -6.042778
      19A     -6.038216    20A     -6.032381    21A     -1.391411
      22A     -1.329902    23A     -1.193463    24A     -1.181074
      25A     -1.097680    26A     -1.005588    27A     -0.943114
      28A     -0.906592    29A     -0.888590    30A     -0.868942
      31A     -0.799866    32A     -0.765339    33A     -0.753810
      34A     -0.745412    35A     -0.697911    36A     -0.682084
      37A     -0.671327    38A     -0.645859    39A     -0.631470
      40A     -0.593884    41A     -0.589116    42A     -0.571151
      43A     -0.564197    44A     -0.559832    45A     -0.557069
      46A     -0.549572    47A     -0.546846    48A     -0.535358
      49A     -0.520109    50A     -0.515315    51A     -0.510897
      52A     -0.499680    53A     -0.491927    54A     -0.489465
      55A     -0.475564    56A     -0.444151    57A     -0.431648
      58A     -0.399155    59A     -0.395657    60A     -0.364746
      61A     -0.341276    62A     -0.317429

  @DF-RKS Final Energy: -1188.33035276710621

   => Energetics <=

    Nuclear Repulsion Energy =           1190.2959389096695304
    One-Electron Energy =               -3995.5675234489381182
    Two-Electron Energy =                1706.6948344337722574
    DFT Exchange-Correlation Energy =     -89.7400846096266633
    Empirical Dispersion Energy =          -0.0135180519831716
    VV10 Nonlocal Energy =                  0.0000000000000000
    Total Energy =                      -1188.3303527671062056

  Dipole Moment: [D]
     X:     7.9715      Y:    -1.4568      Z:    -0.5973     Total:     8.1255

*** Psi4 exiting successfully. Buy a developer a beer!
