                               Psi4 1.3.2 release

  ==> Input File <==

--------------------------------------------------------------------------
molecule {
0 1
 N   -0.980165   -1.522224    0.162638
 C   -2.284360   -1.198203    0.427284
 C   -2.607054    0.313645    0.497609
 F   -3.544053    0.567892   -0.448947
 F   -3.155143    0.553228    1.713171
 C   -1.438796    1.316572    0.292003
 C   -0.114199    0.751914    0.019670
 C    0.981133    1.597734   -0.182002
 C    2.244126    1.095732   -0.439553
 C    2.434723   -0.293974   -0.504634
 C    1.350311   -1.152733   -0.293234
 C    0.083532   -0.638546   -0.039921
 S    3.989580   -1.069613   -0.793914
 C    5.156281    0.312351   -0.839164
 O   -3.146023   -2.029740    0.595055
 O   -1.682192    2.500912    0.364277
 H    3.067967    1.782025   -0.593983
 H    0.812636    2.669092   -0.130361
 H   -0.796493   -2.517358    0.116079
 H    1.499202   -2.229316   -0.326670
 H    4.973812    0.971664   -1.691215
 H    5.140003    0.879684    0.094715
 H    6.142571   -0.143032   -0.955002
}
memory 16GB
set_num_threads(8)
psi4_io.set_default_path("/scratch/Psi4-ligand")
set freeze_core True
E, wfn = energy('wb97x-d/6-311++g**',return_wfn=True)
oeprop(wfn,"WIBERG_LOWDIN_INDICES")
clean()
--------------------------------------------------------------------------

    Molecular point group: c1

    Geometry (in Angstrom), charge = 0, multiplicity = 1:

       Center              X                  Y                   Z               Mass
    ------------   -----------------  -----------------  -----------------  -----------------
         N           -0.980165135089    -1.522224021650     0.162637978497    14.003074004430
         C           -2.284360135089    -1.198203021650     0.427283978497    12.000000000000
         C           -2.607054135089     0.313644978350     0.497608978497    12.000000000000
         F           -3.544053135089     0.567891978350    -0.448947021503    18.998403162730
         F           -3.155143135089     0.553227978350     1.713170978497    18.998403162730
         C           -1.438796135089     1.316571978350     0.292002978497    12.000000000000
         C           -0.114199135089     0.751913978350     0.019669978497    12.000000000000
         C            0.981132864911     1.597733978350    -0.182002021503    12.000000000000
         C            2.244125864911     1.095731978350    -0.439553021503    12.000000000000
         C            2.434722864911    -0.293974021650    -0.504634021503    12.000000000000
         C            1.350310864911    -1.152733021650    -0.293234021503    12.000000000000
         C            0.083531864911    -0.638546021650    -0.039921021503    12.000000000000
         S            3.989579864911    -1.069613021650    -0.793914021503    31.972071174400
         C            5.156280864911     0.312350978350    -0.839164021503    12.000000000000
         O           -3.146023135089    -2.029740021650     0.595054978497    15.994914619570
         O           -1.682192135089     2.500911978350     0.364276978497    15.994914619570
         H            3.067966864911     1.782024978350    -0.593983021503     1.007825032230
         H            0.812635864911     2.669091978350    -0.130361021503     1.007825032230
         H           -0.796493135089    -2.517358021650     0.116078978497     1.007825032230
         H            1.499201864911    -2.229316021650    -0.326670021503     1.007825032230
         H            4.973811864911     0.971663978350    -1.691215021503     1.007825032230
         H            5.140002864911     0.879683978350     0.094714978497     1.007825032230
         H            6.142570864911    -0.143032021650    -0.955002021503     1.007825032230

  Charge       = 0
  Multiplicity = 1
  Basis Set: 6-311++G**
    Blend: 6-311++G**
  Basis Set: (6-311++G** AUX)
    Blend: AUG-CC-PVTZ-JKFIT

    Orbital Energies [Eh]
    ---------------------

    Doubly Occupied:

       1A    -89.054234     2A    -24.839077     3A    -24.838792
       4A    -19.269225     5A    -19.260198     6A    -14.516952
       7A    -10.484847     8A    -10.436403     9A    -10.411194
      10A    -10.391025    11A    -10.372123    12A    -10.341980
      13A    -10.334764    14A    -10.331402    15A    -10.330991
      16A    -10.324498    17A     -8.094873    18A     -6.044327
      19A     -6.039919    20A     -6.034048    21A     -1.389275
      22A     -1.327830    23A     -1.192247    24A     -1.180069
      25A     -1.098449    26A     -1.006862    27A     -0.945353
      28A     -0.906909    29A     -0.888641    30A     -0.868697
      31A     -0.800335    32A     -0.765841    33A     -0.753520
      34A     -0.745825    35A     -0.697425    36A     -0.684193
      37A     -0.669894    38A     -0.646974    39A     -0.630261
      40A     -0.593112    41A     -0.588181    42A     -0.569251
      43A     -0.563892    44A     -0.558174    45A     -0.555803
      46A     -0.555255    47A     -0.550156    48A     -0.535217
      49A     -0.519625    50A     -0.516415    51A     -0.508027
      52A     -0.498876    53A     -0.490495    54A     -0.488621
      55A     -0.475739    56A     -0.443513    57A     -0.434850
      58A     -0.399252    59A     -0.395342    60A     -0.364167
      61A     -0.341820    62A     -0.320452

  @DF-RKS Final Energy: -1188.33402919279706

   => Energetics <=

    Nuclear Repulsion Energy =           1188.3427768050191844
    One-Electron Energy =               -3991.6489719390056052
    Two-Electron Energy =                1704.7251066213243575
    DFT Exchange-Correlation Energy =     -89.7392206647460426
    Empirical Dispersion Energy =          -0.0137200153888310
    VV10 Nonlocal Energy =                  0.0000000000000000
    Total Energy =                      -1188.3340291927968337

  Dipole Moment: [D]
     X:     8.2078      Y:    -0.9242      Z:    -1.4499     Total:     8.3860

*** Psi4 exiting successfully. Buy a developer a beer!
