                               Psi4 1.3.2 release

  ==> Input File <==

--------------------------------------------------------------------------
molecule {
0 1
 N   -0.448796   -1.224164    0.510557
 C   -1.768163   -1.172212    0.876711
 C   -2.502408    0.182976    0.608002
 F   -3.581245   -0.084727   -0.204892
 F   -2.976170    0.642055    1.816563
 C   -1.670091    1.334531   -0.054812
 C   -0.249718    1.059460   -0.371919
 C    0.548748    2.059337   -0.967664
 C    1.893221    1.818513   -1.275206
 C    2.486634    0.557288   -1.002203
 C    1.684592   -0.440597   -0.397689
 C    0.333196   -0.204987   -0.084682
 S    4.203164    0.235597   -1.359103
 C    4.785591   -1.073411   -0.242608
 O   -2.307424   -2.146195    1.382039
 O   -2.189864    2.420076   -0.295258
 H    2.472190    2.625982   -1.723961
 H    0.092340    3.026405   -1.180533
 H   -0.033298   -2.123422    0.711737
 H    2.106650   -1.420664   -0.184056
 H    4.764139   -0.705554    0.787824
 H    4.175219   -1.973265   -0.351536
 H    5.819530   -1.315088   -0.508274
}
set optking {
  frozen_dihedral = ("
    11 10 13 14
    9 10 13 14
    21 14 13 10
  ")
}
set {
  geom_maxiter 400
  g_convergence GAU_LOOSE
  dynamic_level 1
}
memory 16GB
set_num_threads(8)
psi4_io.set_default_path("/scratch/Psi4-ligand")
for _ in range(1):
  try:
    set opt_coordinates both
    optimize('wb97x-d/6-31+G*')
    break
  except OptimizationConvergenceError:
    break
  else:
    try:
      set opt_coordinates cartesian
      optimize('wb97x-d/6-31+G*')
      break
    except OptimizationConvergenceError:
      pass
clean()
--------------------------------------------------------------------------

    Molecular point group: c1
  Charge       = 0
  Multiplicity = 1
  Basis Set: 6-31+G*
    Blend: 6-31+G*
  Basis Set: (6-31+G* AUX)
    Blend: HEAVY-AUG-CC-PVDZ-JKFIT
  @DF-RKS Final Energy: -1188.11259372810741
    Total Energy =                      -1188.1125937281076403
    Molecular point group: c1
  Basis Set: 6-31+G*
    Blend: 6-31+G*
  Basis Set: (6-31+G* AUX)
    Blend: HEAVY-AUG-CC-PVDZ-JKFIT
  Basis Set: 6-31+G*
    Blend: 6-31+G*
  Basis Set: (6-31+G* AUX)
    Blend: HEAVY-AUG-CC-PVDZ-JKFIT
  @DF-RKS Final Energy: -1188.12057093323006
    Total Energy =                      -1188.1205709332298284
  Basis Set: 6-31+G*
    Blend: 6-31+G*
  Basis Set: (6-31+G* AUX)
    Blend: HEAVY-AUG-CC-PVDZ-JKFIT
  Basis Set: 6-31+G*
    Blend: 6-31+G*
  @DF-RKS Final Energy: -1188.12087711212348
    Total Energy =                      -1188.1208771121234804
  @DF-RKS Final Energy: -1188.12098490012659
    Total Energy =                      -1188.1209849001265866
  @DF-RKS Final Energy: -1188.12094690506046
    Total Energy =                      -1188.1209469050604639
  @DF-RKS Final Energy: -1188.12098499543731
    Total Energy =                      -1188.1209849954373112
  @DF-RKS Final Energy: -1188.12097100845062
    Total Energy =                      -1188.1209710084506241
  @DF-RKS Final Energy: -1188.12099030830632
    Total Energy =                      -1188.1209903083060908
  @DF-RKS Final Energy: -1188.12100205323986
    Total Energy =                      -1188.1210020532400904
  @DF-RKS Final Energy: -1188.12101333200280
    Total Energy =                      -1188.1210133320030309
  @DF-RKS Final Energy: -1188.12105227583152
    Total Energy =                      -1188.1210522758315165
  @DF-RKS Final Energy: -1188.12103460274898
    Total Energy =                      -1188.1210346027492051
  @DF-RKS Final Energy: -1188.11995283272267
    Total Energy =                      -1188.1199528327224471
  Basis Set: (6-31+G* AUX)
    Blend: HEAVY-AUG-CC-PVDZ-JKFIT
  Basis Set: 6-31+G*
    Blend: 6-31+G*
  Basis Set: (6-31+G* AUX)
    Blend: HEAVY-AUG-CC-PVDZ-JKFIT
  @DF-RKS Final Energy: -1188.12075657919718
    Total Energy =                      -1188.1207565791971774
  Basis Set: 6-31+G*
    Blend: 6-31+G*
  Basis Set: (6-31+G* AUX)
    Blend: HEAVY-AUG-CC-PVDZ-JKFIT
  Charge       = 0
  Multiplicity = 1
  Basis Set: 6-31+G*
    Blend: 6-31+G*
  Basis Set: (6-31+G* AUX)
    Blend: HEAVY-AUG-CC-PVDZ-JKFIT

    Orbital Energies [Eh]
    ---------------------

    Doubly Occupied:

       1A    -89.083241     2A    -24.872681     3A    -24.871458
       4A    -19.302331     5A    -19.293923     6A    -14.542959
       7A    -10.500567     8A    -10.454340     9A    -10.428153
      10A    -10.407772    11A    -10.386372    12A    -10.357209
      13A    -10.350591    14A    -10.348920    15A    -10.347871
      16A    -10.339577    17A     -8.100763    18A     -6.051501
      19A     -6.047047    20A     -6.040833    21A     -1.391275
      22A     -1.330264    23A     -1.194900    24A     -1.182195
      25A     -1.100948    26A     -1.006048    27A     -0.944432
      28A     -0.905839    29A     -0.891647    30A     -0.867848
      31A     -0.798905    32A     -0.771482    33A     -0.755124
      34A     -0.741505    35A     -0.697912    36A     -0.682782
      37A     -0.670574    38A     -0.648985    39A     -0.629774
      40A     -0.592958    41A     -0.584981    42A     -0.570095
      43A     -0.564892    44A     -0.562227    45A     -0.555475
      46A     -0.552940    47A     -0.549183    48A     -0.534537
      49A     -0.526276    50A     -0.517458    51A     -0.509116
      52A     -0.502957    53A     -0.490045    54A     -0.481362
      55A     -0.471011    56A     -0.445345    57A     -0.433534
      58A     -0.395959    59A     -0.392739    60A     -0.364564
      61A     -0.343886    62A     -0.319662

  @DF-RKS Final Energy: -1188.12103483267742

   => Energetics <=

    Nuclear Repulsion Energy =           1190.7532572278437328
    One-Electron Energy =               -3995.4072379058957267
    Two-Electron Energy =                1706.1021523750550841
    DFT Exchange-Correlation Energy =     -89.5555303722460678
    Empirical Dispersion Energy =          -0.0136761574344613
    VV10 Nonlocal Energy =                  0.0000000000000000
    Total Energy =                      -1188.1210348326774238

  Dipole Moment: [D]
     X:     7.5908      Y:    -1.5968      Z:    -1.0852     Total:     7.8325

    Molecular point group: c1
  Basis Set: 6-31+G*
    Blend: 6-31+G*
  Basis Set: (6-31+G* AUX)
    Blend: HEAVY-AUG-CC-PVDZ-JKFIT

  -Total Gradient:
     Atom            X                  Y                   Z
    ------   -----------------  -----------------  -----------------
       1        0.000101673434    -0.000057536694    -0.000120173553
       2        0.000240460071    -0.000031868794    -0.000302385921
       3        0.001034319058     0.000504190865     0.000830673045
       4       -0.000840151569    -0.000268475343    -0.000697867107
       5       -0.000155544110    -0.000038411240    -0.000082739123
       6        0.000370911308    -0.000287310986     0.000002481688
       7        0.000257682871    -0.001292962963     0.000291632174
       8        0.001382368516     0.000323514509    -0.000589285278
       9       -0.000433026023     0.001711420558     0.002931536159
      10       -0.001778169436    -0.003369543844    -0.005866255423
      11        0.001066425954     0.000719459384     0.000758678760
      12       -0.001073282412     0.000854646960     0.000096821206
      13        0.001025961503     0.000356872560     0.001476946928
      14       -0.001888456108     0.000040807953     0.000465858168
      15       -0.000017541602    -0.000279156758     0.000286877410
      16       -0.000123226328     0.000366702495    -0.000024209194
      17        0.000126265308    -0.000151761079    -0.000056421649
      18       -0.000109068048    -0.000127411500     0.000076919883
      19        0.000050990256     0.000088008225    -0.000064665294
      20       -0.000124110734     0.000048716511    -0.000062352390
      21        0.002232321680     0.000792547778    -0.000198561597
      22        0.000126049820     0.000009883488    -0.000056908508
      23       -0.000167885357    -0.000178428745     0.000307795552

  **** Optimization is complete! (in 1 steps) ****
    Final optimized geometry and variables:
    Molecular point group: c1

    Geometry (in Angstrom), charge = 0, multiplicity = 1:

    N           -0.445575186622    -1.471084511964     0.613237861777
    C           -1.751108449024    -1.446636771556     1.027233024541
    C           -2.499035227245    -0.106585192332     0.825272563597
    F           -3.633195282884    -0.373565524197     0.135940035277
    F           -2.846455640210     0.344393815927     2.057920695026
    C           -1.746601880122     1.041599506229     0.098176614870
    C           -0.346622709659     0.798576908566    -0.263488505201
    C            0.406337251940     1.810051355900    -0.879334482908
    C            1.727255067929     1.610095960532    -1.216328204186
    C            2.332597630210     0.362311397777    -0.965671001423
    C            1.600278142023    -0.646697824749    -0.344448271298
    C            0.264268884785    -0.432663408872     0.003983283724
    S            4.028837642866     0.200352839228    -1.434070722235
    C            4.665673892072    -1.085731679291    -0.330574188346
    O           -2.296588369186    -2.399523400195     1.533746577773
    O           -2.346083312661     2.070860755244    -0.119907380158
    H            2.306550296323     2.408725498978    -1.668570951736
    H           -0.079159046085     2.763062845278    -1.064717678899
    H            0.025986831413    -2.354277435772     0.765875244038
    H            2.047714110815    -1.612712070519    -0.135038534183
    H            4.656073828762    -0.754050473857     0.710467593542
    H            4.145404814225    -2.038902708990    -0.445018193102
    H            5.705043931478    -1.236429351812    -0.632614496549

*** Psi4 exiting successfully. Buy a developer a beer!
