                               Psi4 1.3.2 release

  ==> Input File <==

--------------------------------------------------------------------------
molecule {
0 1
 N   -0.555606   -1.328384    0.316301
 C   -1.843995   -1.209938    0.766643
 C   -2.457171    0.228512    0.717745
 F   -3.649329    0.149092    0.032774
 F   -2.728985    0.603858    2.013840
 C   -1.591446    1.358272    0.059613
 C   -0.215312    1.008787   -0.361758
 C    0.622025    1.992803   -0.932454
 C    1.932202    1.686327   -1.320336
 C    2.438369    0.369771   -1.164336
 C    1.595077   -0.618867   -0.607988
 C    0.279813   -0.316326   -0.213483
 S    4.098790   -0.085474   -1.593447
 C    4.805911   -0.802010   -0.083296
 O   -2.444338   -2.188728    1.186580
 O   -2.042992    2.491575   -0.075226
 H    2.553016    2.482899   -1.730021
 H    0.224807    3.000814   -1.055606
 H   -0.214577   -2.277881    0.379353
 H    1.963514   -1.638628   -0.493596
 H    4.877510   -0.023957    0.683325
 H    4.182814   -1.626032    0.274743
 H    5.807940   -1.178550   -0.310334
}
set optking {
  frozen_dihedral = ("
    11 10 13 14
    9 10 13 14
    21 14 13 10
  ")
}
set {
  geom_maxiter 400
  g_convergence GAU_LOOSE
  dynamic_level 1
}
memory 16GB
set_num_threads(8)
psi4_io.set_default_path("/scratch/Psi4-ligand")
for _ in range(1):
  try:
    set opt_coordinates both
    optimize('wb97x-d/6-31+G*')
    break
  except OptimizationConvergenceError:
    break
  else:
    try:
      set opt_coordinates cartesian
      optimize('wb97x-d/6-31+G*')
      break
    except OptimizationConvergenceError:
      pass
clean()
--------------------------------------------------------------------------

    Molecular point group: c1
  Charge       = 0
  Multiplicity = 1
  Basis Set: 6-31+G*
    Blend: 6-31+G*
  Basis Set: (6-31+G* AUX)
    Blend: HEAVY-AUG-CC-PVDZ-JKFIT
  @DF-RKS Final Energy: -1188.11211518770210
    Total Energy =                      -1188.1121151877018747
    Molecular point group: c1
  Basis Set: 6-31+G*
    Blend: 6-31+G*
  Basis Set: (6-31+G* AUX)
    Blend: HEAVY-AUG-CC-PVDZ-JKFIT
  Basis Set: 6-31+G*
    Blend: 6-31+G*
  Basis Set: (6-31+G* AUX)
    Blend: HEAVY-AUG-CC-PVDZ-JKFIT
  @DF-RKS Final Energy: -1188.11912221788862
    Total Energy =                      -1188.1191222178888438
  Basis Set: 6-31+G*
    Blend: 6-31+G*
  Basis Set: (6-31+G* AUX)
    Blend: HEAVY-AUG-CC-PVDZ-JKFIT
  Basis Set: 6-31+G*
    Blend: 6-31+G*
  @DF-RKS Final Energy: -1188.11937024510530
    Total Energy =                      -1188.1193702451055287
  @DF-RKS Final Energy: -1188.11905328369517
    Total Energy =                      -1188.1190532836949387
  @DF-RKS Final Energy: -1188.11944467511103
    Total Energy =                      -1188.1194446751110263
  @DF-RKS Final Energy: -1188.11952502052122
    Total Energy =                      -1188.1195250205212233
  @DF-RKS Final Energy: -1188.11991122068957
    Total Energy =                      -1188.1199112206895734
  @DF-RKS Final Energy: -1188.12004865425524
    Total Energy =                      -1188.1200486542552426
  @DF-RKS Final Energy: -1188.12012366781096
    Total Energy =                      -1188.1201236678109581
  Basis Set: (6-31+G* AUX)
    Blend: HEAVY-AUG-CC-PVDZ-JKFIT
  Basis Set: 6-31+G*
    Blend: 6-31+G*
  Basis Set: (6-31+G* AUX)
    Blend: HEAVY-AUG-CC-PVDZ-JKFIT
  @DF-RKS Final Energy: -1188.12051524538970
    Total Energy =                      -1188.1205152453896972
  Basis Set: 6-31+G*
    Blend: 6-31+G*
  Basis Set: (6-31+G* AUX)
    Blend: HEAVY-AUG-CC-PVDZ-JKFIT
  Charge       = 0
  Multiplicity = 1
  Basis Set: 6-31+G*
    Blend: 6-31+G*
  Basis Set: (6-31+G* AUX)
    Blend: HEAVY-AUG-CC-PVDZ-JKFIT

    Orbital Energies [Eh]
    ---------------------

    Doubly Occupied:

       1A    -89.073865     2A    -24.877014     3A    -24.875971
       4A    -19.310216     5A    -19.297415     6A    -14.542580
       7A    -10.502841     8A    -10.456351     9A    -10.433343
      10A    -10.407500    11A    -10.380855    12A    -10.352833
      13A    -10.351368    14A    -10.351011    15A    -10.350001
      16A    -10.340478    17A     -8.091126    18A     -6.041917
      19A     -6.037751    20A     -6.030889    21A     -1.396186
      22A     -1.334557    23A     -1.197330    24A     -1.189153
      25A     -1.101478    26A     -1.005210    27A     -0.940965
      28A     -0.906732    29A     -0.891061    30A     -0.867386
      31A     -0.793632    32A     -0.770301    33A     -0.757804
      34A     -0.741522    35A     -0.699726    36A     -0.682143
      37A     -0.674315    38A     -0.648240    39A     -0.631580
      40A     -0.593964    41A     -0.583857    42A     -0.573556
      43A     -0.564689    44A     -0.562773    45A     -0.558470
      46A     -0.551089    47A     -0.541897    48A     -0.536014
      49A     -0.527391    50A     -0.519660    51A     -0.515245
      52A     -0.502767    53A     -0.495629    54A     -0.481356
      55A     -0.474229    56A     -0.443648    57A     -0.426575
      58A     -0.398660    59A     -0.381303    60A     -0.368670
      61A     -0.341857    62A     -0.325591

  @DF-RKS Final Energy: -1188.12059184693317

   => Energetics <=

    Nuclear Repulsion Energy =           1194.9901738076021047
    One-Electron Energy =               -4003.8790175847616410
    Two-Electron Energy =                1710.3327424490751127
    DFT Exchange-Correlation Energy =     -89.5506309146093429
    Empirical Dispersion Energy =          -0.0138596042394114
    VV10 Nonlocal Energy =                  0.0000000000000000
    Total Energy =                      -1188.1205918469329390

  Dipole Moment: [D]
     X:     6.5341      Y:    -1.1007      Z:    -0.2715     Total:     6.6317

    Molecular point group: c1
  Basis Set: 6-31+G*
    Blend: 6-31+G*
  Basis Set: (6-31+G* AUX)
    Blend: HEAVY-AUG-CC-PVDZ-JKFIT

  -Total Gradient:
     Atom            X                  Y                   Z
    ------   -----------------  -----------------  -----------------
       1        0.000226173416    -0.000341875867    -0.000234718945
       2       -0.000364558619     0.000173354990     0.000514622166
       3       -0.000344852188    -0.000607060218    -0.001444658715
       4        0.000546457532    -0.000010543247     0.000338106503
       5        0.000032311789     0.000123119205     0.000587461842
       6        0.000260934895    -0.000125399508     0.000397428971
       7        0.000021230490    -0.000154384032     0.000074378742
       8        0.000370646667     0.000316880478    -0.000226235389
       9        0.000332394046     0.001029328397     0.002637722297
      10       -0.001643263580    -0.002738213177    -0.006733747626
      11        0.001135062949     0.000671630489     0.002062002222
      12       -0.000416558014     0.000065858702     0.000044862476
      13        0.000742422505     0.000879865723     0.001959086511
      14       -0.001082701787    -0.000146474904     0.000256190685
      15        0.000095952654     0.000209570502    -0.000131484488
      16       -0.000286033708     0.000342171281    -0.000253655909
      17        0.000119616174    -0.000008822200    -0.000045515053
      18       -0.000011132010     0.000040521291    -0.000054328038
      19        0.000048773108    -0.000065329972     0.000120912203
      20       -0.000015461067    -0.000077709035     0.000038737872
      21        0.000893074795     0.000357076212    -0.000220114388
      22        0.000029321128    -0.000052838263     0.000028147157
      23        0.000138313252    -0.000019215099    -0.000041862717

  **** Optimization is complete! (in 11 steps) ****
    Final optimized geometry and variables:
    Molecular point group: c1

    Geometry (in Angstrom), charge = 0, multiplicity = 1:

    N           -0.623917199458    -1.562177362817     0.304060935516
    C           -1.947134701326    -1.477280509483     0.653021729703
    C           -2.463804816018    -0.030333155030     0.810837342521
    F           -3.788349289547    -0.001557454864     0.664035585506
    F           -2.161774362575     0.333469262094     2.105076295470
    C           -1.778360053580     1.027949391740    -0.088025792471
    C           -0.352687582162     0.772121623326    -0.352820079199
    C            0.470959375110     1.790325606531    -0.842600957684
    C            1.813145211406     1.558668399374    -1.092361204429
    C            2.343781503881     0.275613774347    -0.894577625792
    C            1.531207196904    -0.749543310620    -0.411730955140
    C            0.185550606629    -0.507536008936    -0.137603850881
    S            4.072850277105     0.004971897095    -1.226943478936
    C            4.645327633300    -0.657594338464     0.366792051381
    O           -2.639211471107    -2.440714540400     0.881352131062
    O           -2.394299071947     1.996323595282    -0.466826319507
    H            2.458328642403     2.359863434981    -1.436787880515
    H            0.035021432159     2.772498460825    -0.998217926824
    H           -0.249372668870    -2.502919651689     0.280868350281
    H            1.935153278456    -1.749041319350    -0.274644058425
    H            4.566834034668     0.096907902767     1.152546724449
    H            4.106862272079    -1.563081869993     0.653900127816
    H            5.698911724318    -0.912674958620     0.225400363495

*** Psi4 exiting successfully. Buy a developer a beer!
