                               Psi4 1.3.2 release

  ==> Input File <==

--------------------------------------------------------------------------
molecule {
0 1
 N   -1.077360   -1.488189    0.122704
 C   -2.380766   -1.153840    0.380760
 C   -2.690743    0.377162    0.473067
 F   -3.648494    0.662383   -0.474249
 F   -3.230234    0.615642    1.717272
 C   -1.493506    1.369198    0.266134
 C   -0.158499    0.787119   -0.003044
 C    0.957845    1.630344   -0.193775
 C    2.229045    1.101023   -0.452551
 C    2.420631   -0.306270   -0.529067
 C    1.302638   -1.146772   -0.327679
 C    0.024514   -0.621099   -0.070102
 S    3.960208   -1.154147   -0.808720
 C    5.283281    0.089351   -0.850881
 O   -3.225912   -2.025537    0.524189
 O   -1.671220    2.582145    0.327463
 H    3.048522    1.799750   -0.610458
 H    0.804912    2.708579   -0.135153
 H   -0.942314   -2.488864    0.073892
 H    1.432952   -2.229471   -0.367995
 H    5.487889    0.360920   -1.891060
 H    5.019811    0.968889   -0.259069
 H    6.184829   -0.360374   -0.422639
}
set optking {
  frozen_dihedral = ("
    11 10 13 14
    9 10 13 14
    21 14 13 10
  ")
}
set {
  geom_maxiter 400
  g_convergence GAU_LOOSE
  dynamic_level 1
}
memory 16GB
set_num_threads(8)
psi4_io.set_default_path("/scratch/Psi4-ligand")
for _ in range(1):
  try:
    set opt_coordinates both
    optimize('wb97x-d/6-31+G*')
    break
  except OptimizationConvergenceError:
    break
  else:
    try:
      set opt_coordinates cartesian
      optimize('wb97x-d/6-31+G*')
      break
    except OptimizationConvergenceError:
      pass
clean()
--------------------------------------------------------------------------

    Molecular point group: c1
  Charge       = 0
  Multiplicity = 1
  Basis Set: 6-31+G*
    Blend: 6-31+G*
  Basis Set: (6-31+G* AUX)
    Blend: HEAVY-AUG-CC-PVDZ-JKFIT
  @DF-RKS Final Energy: -1188.11365170568661
    Total Energy =                      -1188.1136517056866069
    Molecular point group: c1
  Basis Set: 6-31+G*
    Blend: 6-31+G*
  Basis Set: (6-31+G* AUX)
    Blend: HEAVY-AUG-CC-PVDZ-JKFIT
  Basis Set: 6-31+G*
    Blend: 6-31+G*
  Basis Set: (6-31+G* AUX)
    Blend: HEAVY-AUG-CC-PVDZ-JKFIT
  @DF-RKS Final Energy: -1188.11365087896570
    Total Energy =                      -1188.1136508789657000
  Basis Set: 6-31+G*
    Blend: 6-31+G*
  Basis Set: (6-31+G* AUX)
    Blend: HEAVY-AUG-CC-PVDZ-JKFIT
  Basis Set: 6-31+G*
    Blend: 6-31+G*
  @DF-RKS Final Energy: -1188.11365329275850
    Total Energy =                      -1188.1136532927584994
  @DF-RKS Final Energy: -1188.11661569444209
    Total Energy =                      -1188.1166156944420891
  @DF-RKS Final Energy: -1188.11818687354048
    Total Energy =                      -1188.1181868735404805
  @DF-RKS Final Energy: -1188.11895695123189
    Total Energy =                      -1188.1189569512316666
  @DF-RKS Final Energy: -1188.11936623085194
    Total Energy =                      -1188.1193662308519379
  @DF-RKS Final Energy: -1188.11956546809529
    Total Energy =                      -1188.1195654680952885
  @DF-RKS Final Energy: -1188.11965571845121
    Total Energy =                      -1188.1196557184512130
  @DF-RKS Final Energy: -1188.11971229047822
    Total Energy =                      -1188.1197122904784464
  @DF-RKS Final Energy: -1188.11975384285279
    Total Energy =                      -1188.1197538428527878
  @DF-RKS Final Energy: -1188.11978508220500
    Total Energy =                      -1188.1197850822049986
  @DF-RKS Final Energy: -1188.11981273318111
    Total Energy =                      -1188.1198127331811065
  @DF-RKS Final Energy: -1188.11983552623497
    Total Energy =                      -1188.1198355262349651
  Basis Set: (6-31+G* AUX)
    Blend: HEAVY-AUG-CC-PVDZ-JKFIT
  Basis Set: 6-31+G*
    Blend: 6-31+G*
  Basis Set: (6-31+G* AUX)
    Blend: HEAVY-AUG-CC-PVDZ-JKFIT
  @DF-RKS Final Energy: -1188.11984822960062
    Total Energy =                      -1188.1198482296006205
  Basis Set: 6-31+G*
    Blend: 6-31+G*
  Basis Set: (6-31+G* AUX)
    Blend: HEAVY-AUG-CC-PVDZ-JKFIT
  Charge       = 0
  Multiplicity = 1
  Basis Set: 6-31+G*
    Blend: 6-31+G*
  Basis Set: (6-31+G* AUX)
    Blend: HEAVY-AUG-CC-PVDZ-JKFIT

    Orbital Energies [Eh]
    ---------------------

    Doubly Occupied:

       1A    -89.084904     2A    -24.870490     3A    -24.870476
       4A    -19.300701     5A    -19.291418     6A    -14.540427
       7A    -10.498738     8A    -10.452032     9A    -10.426772
      10A    -10.405579    11A    -10.388355    12A    -10.356298
      13A    -10.350490    14A    -10.347312    15A    -10.346405
      16A    -10.341295    17A     -8.102618    18A     -6.053320
      19A     -6.048779    20A     -6.042811    21A     -1.389855
      22A     -1.328797    23A     -1.192557    24A     -1.180689
      25A     -1.098525    26A     -1.005959    27A     -0.944251
      28A     -0.906356    29A     -0.888599    30A     -0.868807
      31A     -0.800400    32A     -0.765205    33A     -0.753312
      34A     -0.745374    35A     -0.696589    36A     -0.683138
      37A     -0.669094    38A     -0.646276    39A     -0.630011
      40A     -0.592025    41A     -0.587316    42A     -0.567907
      43A     -0.562336    44A     -0.557385    45A     -0.555037
      46A     -0.553650    47A     -0.549345    48A     -0.534289
      49A     -0.518905    50A     -0.515959    51A     -0.507059
      52A     -0.498294    53A     -0.489729    54A     -0.488301
      55A     -0.474674    56A     -0.442398    57A     -0.433023
      58A     -0.397894    59A     -0.394109    60A     -0.362942
      61A     -0.339993    62A     -0.318346

  @DF-RKS Final Energy: -1188.11985540697287

   => Energetics <=

    Nuclear Repulsion Energy =           1187.3392702015887608
    One-Electron Energy =               -3988.6719327812306801
    Two-Electron Energy =                1702.7836772768496303
    DFT Exchange-Correlation Energy =     -89.5573767891587522
    Empirical Dispersion Energy =          -0.0134933150221580
    VV10 Nonlocal Energy =                  0.0000000000000000
    Total Energy =                      -1188.1198554069728743

  Dipole Moment: [D]
     X:     8.2233      Y:    -1.0578      Z:    -1.4018     Total:     8.4088

    Molecular point group: c1
  Basis Set: 6-31+G*
    Blend: 6-31+G*
  Basis Set: (6-31+G* AUX)
    Blend: HEAVY-AUG-CC-PVDZ-JKFIT

  -Total Gradient:
     Atom            X                  Y                   Z
    ------   -----------------  -----------------  -----------------
       1       -0.000076487574    -0.000029559767     0.000029434541
       2        0.000091865019     0.000088956608    -0.000021920654
       3        0.000209352171    -0.000002501204    -0.000063435503
       4       -0.000060862223    -0.000019218746    -0.000105705260
       5       -0.000009363595    -0.000001860925     0.000095922364
       6       -0.000316977037    -0.000221126772     0.000046749592
       7        0.000003062168     0.000283047573    -0.000000601030
       8        0.000080547792    -0.000057663131    -0.000020444929
       9        0.000480977788    -0.000205253849     0.002544831523
      10       -0.000169338883    -0.000225548966    -0.002637771790
      11        0.000110349455     0.000012728859     0.000941973264
      12        0.000292475714    -0.000044909924     0.000035721367
      13        0.000869090272    -0.000536778958    -0.000459240275
      14       -0.003847130034     0.003475713584    -0.000114171410
      15        0.000052487804     0.000002937245    -0.000043320514
      16       -0.000178146455    -0.000049135488     0.000009214327
      17        0.000100289962     0.000065077677     0.000089711060
      18        0.000160548474     0.000089109548    -0.000029240340
      19        0.000159786644     0.000052137461    -0.000006303632
      20        0.000110749319    -0.000119796213    -0.000026315125
      21        0.003093612826    -0.002994062600    -0.000260281720
      22       -0.000118044110    -0.000212099009     0.000018694255
      23        0.000031249412    -0.000009608136    -0.000019534076

  **** Optimization is complete! (in 14 steps) ****
    Final optimized geometry and variables:
    Molecular point group: c1

    Geometry (in Angstrom), charge = 0, multiplicity = 1:

    N           -1.015822272424    -1.490142962178     0.149085340676
    C           -2.314457979772    -1.139684847344     0.406536138828
    C           -2.602836637525     0.377905288538     0.494301660882
    F           -3.544122445456     0.662649911491    -0.438643333572
    F           -3.132199844905     0.616729661227     1.719028118654
    C           -1.414851523814     1.356882798097     0.288676652109
    C           -0.100214447859     0.765414095538     0.023504745004
    C            1.015745735044     1.585239188207    -0.173723992484
    C            2.267351148930     1.055381620906    -0.430818633823
    C            2.429036878202    -0.337927624732    -0.501346999045
    C            1.322566723043    -1.170322581395    -0.297661979511
    C            0.067491219669    -0.628511553340    -0.043694376791
    S            3.955500729938    -1.174451968371    -0.782862068647
    C            5.217359962011     0.126394680738    -0.816840913079
    O           -3.195996566553    -1.953199278338     0.558355435769
    O           -1.636024008457     2.545590978296     0.357279236546
    H            3.097868928015     1.728705750218    -0.603498244611
    H            0.873350696325     2.660612967095    -0.124266978102
    H           -0.852953149278    -2.488412950510     0.094484576296
    H            1.445804754130    -2.250185709512    -0.335713648001
    H            5.441314560175     0.442812435913    -1.837420735647
    H            4.949784990672     0.973028548230    -0.184347927792
    H            6.119925618286    -0.326782100654    -0.398598838677

*** Psi4 exiting successfully. Buy a developer a beer!
