                               Psi4 1.3.2 release

  ==> Input File <==

--------------------------------------------------------------------------
molecule {
0 1
 N   -0.445575   -1.471085    0.613238
 C   -1.751108   -1.446637    1.027233
 C   -2.499035   -0.106585    0.825273
 F   -3.633195   -0.373566    0.135940
 F   -2.846456    0.344394    2.057921
 C   -1.746602    1.041600    0.098177
 C   -0.346623    0.798577   -0.263489
 C    0.406337    1.810051   -0.879334
 C    1.727255    1.610096   -1.216328
 C    2.332598    0.362311   -0.965671
 C    1.600278   -0.646698   -0.344448
 C    0.264269   -0.432663    0.003983
 S    4.028838    0.200353   -1.434071
 C    4.665674   -1.085732   -0.330574
 O   -2.296588   -2.399523    1.533747
 O   -2.346083    2.070861   -0.119907
 H    2.306550    2.408725   -1.668571
 H   -0.079159    2.763063   -1.064718
 H    0.025987   -2.354277    0.765875
 H    2.047714   -1.612712   -0.135039
 H    4.656074   -0.754050    0.710468
 H    4.145405   -2.038903   -0.445018
 H    5.705044   -1.236429   -0.632614
}
memory 16GB
set_num_threads(8)
psi4_io.set_default_path("/scratch/Psi4-ligand")
set freeze_core True
E, wfn = energy('wb97x-d/6-311++g**',return_wfn=True)
oeprop(wfn,"WIBERG_LOWDIN_INDICES")
clean()
--------------------------------------------------------------------------

    Molecular point group: c1

    Geometry (in Angstrom), charge = 0, multiplicity = 1:

       Center              X                  Y                   Z               Mass
    ------------   -----------------  -----------------  -----------------  -----------------
         N           -0.445575117180    -1.471085003109     0.613237897006    14.003074004430
         C           -1.751108117180    -1.446637003109     1.027232897006    12.000000000000
         C           -2.499035117180    -0.106585003109     0.825272897006    12.000000000000
         F           -3.633195117180    -0.373566003109     0.135939897006    18.998403162730
         F           -2.846456117180     0.344393996891     2.057920897006    18.998403162730
         C           -1.746602117180     1.041599996891     0.098176897006    12.000000000000
         C           -0.346623117180     0.798576996891    -0.263489102994    12.000000000000
         C            0.406336882820     1.810050996891    -0.879334102994    12.000000000000
         C            1.727254882820     1.610095996891    -1.216328102994    12.000000000000
         C            2.332597882820     0.362310996891    -0.965671102994    12.000000000000
         C            1.600277882820    -0.646698003109    -0.344448102994    12.000000000000
         C            0.264268882820    -0.432663003109     0.003982897006    12.000000000000
         S            4.028837882820     0.200352996891    -1.434071102994    31.972071174400
         C            4.665673882820    -1.085732003109    -0.330574102994    12.000000000000
         O           -2.296588117180    -2.399523003109     1.533746897006    15.994914619570
         O           -2.346083117180     2.070860996891    -0.119907102994    15.994914619570
         H            2.306549882820     2.408724996891    -1.668571102994     1.007825032230
         H           -0.079159117180     2.763062996891    -1.064718102994     1.007825032230
         H            0.025986882820    -2.354277003109     0.765874897006     1.007825032230
         H            2.047713882820    -1.612712003109    -0.135039102994     1.007825032230
         H            4.656073882820    -0.754050003109     0.710467897006     1.007825032230
         H            4.145404882820    -2.038903003109    -0.445018102994     1.007825032230
         H            5.705043882820    -1.236429003109    -0.632614102994     1.007825032230

  Charge       = 0
  Multiplicity = 1
  Basis Set: 6-311++G**
    Blend: 6-311++G**
  Basis Set: (6-311++G** AUX)
    Blend: AUG-CC-PVTZ-JKFIT

    Orbital Energies [Eh]
    ---------------------

    Doubly Occupied:

       1A    -89.052225     2A    -24.840948     3A    -24.839734
       4A    -19.270642     5A    -19.262517     6A    -14.519264
       7A    -10.486472     8A    -10.438514     9A    -10.412422
      10A    -10.393126    11A    -10.371200    12A    -10.342308
      13A    -10.333984    14A    -10.333344    15A    -10.332634
      16A    -10.323090    17A     -8.092789    18A     -6.042313
      19A     -6.037904    20A     -6.031824    21A     -1.390462
      22A     -1.329090    23A     -1.194441    24A     -1.181467
      25A     -1.100761    26A     -1.006719    27A     -0.944753
      28A     -0.905907    29A     -0.891879    30A     -0.867908
      31A     -0.799098    32A     -0.772267    33A     -0.755131
      34A     -0.742063    35A     -0.698765    36A     -0.683785
      37A     -0.671188    38A     -0.649641    39A     -0.630370
      40A     -0.594158    41A     -0.586225    42A     -0.571250
      43A     -0.565992    44A     -0.563113    45A     -0.556181
      46A     -0.553817    47A     -0.549178    48A     -0.535175
      49A     -0.526509    50A     -0.517817    51A     -0.510005
      52A     -0.503514    53A     -0.490927    54A     -0.482338
      55A     -0.471819    56A     -0.446542    57A     -0.434565
      58A     -0.397048    59A     -0.394039    60A     -0.365608
      61A     -0.345593    62A     -0.320827

  @DF-RKS Final Energy: -1188.33232810538902

   => Energetics <=

    Nuclear Repulsion Energy =           1190.7532219375473233
    One-Electron Energy =               -3996.3888654112488439
    Two-Electron Energy =                1707.0539583466897966
    DFT Exchange-Correlation Energy =     -89.7369668202372708
    Empirical Dispersion Energy =          -0.0136761581398876
    VV10 Nonlocal Energy =                  0.0000000000000000
    Total Energy =                      -1188.3323281053890241

  Dipole Moment: [D]
     X:     7.6636      Y:    -1.5927      Z:    -1.1213     Total:     7.9073

*** Psi4 exiting successfully. Buy a developer a beer!
