                               Psi4 1.3.2 release

  ==> Input File <==

--------------------------------------------------------------------------
molecule {
0 1
 N   -0.590543   -1.264268   -0.334797
 C   -1.958642   -1.203906   -0.292747
 C   -2.572341    0.172808    0.126974
 F   -3.372332    0.600988   -0.908520
 F   -3.371483   -0.048302    1.226247
 C   -1.574366    1.330094    0.477558
 C   -0.125507    1.044037    0.365232
 C    0.819386    2.048852    0.666352
 C    2.193163    1.799775    0.561569
 C    2.668042    0.528999    0.142587
 C    1.719770   -0.482120   -0.141389
 C    0.338228   -0.237885   -0.039239
 S    4.403912    0.160201    0.015599
 C    4.603289   -0.979285   -1.383924
 O   -2.629106   -2.186075   -0.576762
 O   -1.993253    2.429840    0.826170
 H    2.885087    2.605594    0.806983
 H    0.451783    3.026050    0.980777
 H   -0.257592   -2.176484   -0.615566
 H    2.058660   -1.479793   -0.417540
 H    4.112150   -1.931195   -1.165028
 H    4.158846   -0.531288   -2.278199
 H    5.670884   -1.148689   -1.553299
}
set optking {
  frozen_dihedral = ("
    11 10 13 14
    9 10 13 14
    21 14 13 10
  ")
}
set {
  geom_maxiter 400
  g_convergence GAU_LOOSE
  dynamic_level 1
}
memory 16GB
set_num_threads(8)
psi4_io.set_default_path("/scratch/Psi4-ligand")
for _ in range(1):
  try:
    set opt_coordinates both
    optimize('wb97x-d/6-31+G*')
    break
  except OptimizationConvergenceError:
    break
  else:
    try:
      set opt_coordinates cartesian
      optimize('wb97x-d/6-31+G*')
      break
    except OptimizationConvergenceError:
      pass
clean()
--------------------------------------------------------------------------

    Molecular point group: c1
  Charge       = 0
  Multiplicity = 1
  Basis Set: 6-31+G*
    Blend: 6-31+G*
  Basis Set: (6-31+G* AUX)
    Blend: HEAVY-AUG-CC-PVDZ-JKFIT
  @DF-RKS Final Energy: -1188.11283376270831
    Total Energy =                      -1188.1128337627085330
    Molecular point group: c1
  Basis Set: 6-31+G*
    Blend: 6-31+G*
  Basis Set: (6-31+G* AUX)
    Blend: HEAVY-AUG-CC-PVDZ-JKFIT
  Basis Set: 6-31+G*
    Blend: 6-31+G*
  Basis Set: (6-31+G* AUX)
    Blend: HEAVY-AUG-CC-PVDZ-JKFIT
  @DF-RKS Final Energy: -1188.12039492313488
    Total Energy =                      -1188.1203949231346542
  Basis Set: 6-31+G*
    Blend: 6-31+G*
  Basis Set: (6-31+G* AUX)
    Blend: HEAVY-AUG-CC-PVDZ-JKFIT
  Basis Set: 6-31+G*
    Blend: 6-31+G*
  @DF-RKS Final Energy: -1188.12072943314706
    Total Energy =                      -1188.1207294331468347
  @DF-RKS Final Energy: -1188.12071201841081
    Total Energy =                      -1188.1207120184108135
  @DF-RKS Final Energy: -1188.12072500377508
    Total Energy =                      -1188.1207250037750782
  @DF-RKS Final Energy: -1188.12079560676648
    Total Energy =                      -1188.1207956067664782
  @DF-RKS Final Energy: -1188.12080578714381
    Total Energy =                      -1188.1208057871438086
  @DF-RKS Final Energy: -1188.12085500858961
    Total Energy =                      -1188.1208550085898423
  @DF-RKS Final Energy: -1188.11993301926577
    Total Energy =                      -1188.1199330192657726
  @DF-RKS Final Energy: -1188.12085537670623
    Total Energy =                      -1188.1208553767062313
  @DF-RKS Final Energy: -1188.12078160963847
    Total Energy =                      -1188.1207816096382430
  @DF-RKS Final Energy: -1188.12086374151045
    Total Energy =                      -1188.1208637415102203
  @DF-RKS Final Energy: -1188.12091884467168
    Total Energy =                      -1188.1209188446716780
  @DF-RKS Final Energy: -1188.12099878961180
    Total Energy =                      -1188.1209987896118037
  @DF-RKS Final Energy: -1188.12109155233929
    Total Energy =                      -1188.1210915523392941
  @DF-RKS Final Energy: -1188.12118608829041
    Total Energy =                      -1188.1211860882901874
  @DF-RKS Final Energy: -1188.12112392363110
    Total Energy =                      -1188.1211239236311030
  @DF-RKS Final Energy: -1188.12124336650049
    Total Energy =                      -1188.1212433665004937
  @DF-RKS Final Energy: -1188.12139284609361
    Total Energy =                      -1188.1213928460936131
  @DF-RKS Final Energy: -1188.12101033514227
    Total Energy =                      -1188.1210103351425005
  @DF-RKS Final Energy: -1188.12144832832541
    Total Energy =                      -1188.1214483283256413
  @DF-RKS Final Energy: -1188.12166825127656
    Total Energy =                      -1188.1216682512765601
  @DF-RKS Final Energy: -1188.12181377956745
    Total Energy =                      -1188.1218137795674465
  @DF-RKS Final Energy: -1188.12189275595483
    Total Energy =                      -1188.1218927559548320
  @DF-RKS Final Energy: -1188.12175363560414
    Total Energy =                      -1188.1217536356039091
  Basis Set: (6-31+G* AUX)
    Blend: HEAVY-AUG-CC-PVDZ-JKFIT
  Basis Set: 6-31+G*
    Blend: 6-31+G*
  Basis Set: (6-31+G* AUX)
    Blend: HEAVY-AUG-CC-PVDZ-JKFIT
  @DF-RKS Final Energy: -1188.12189899648115
    Total Energy =                      -1188.1218989964813773
  Basis Set: 6-31+G*
    Blend: 6-31+G*
  Basis Set: (6-31+G* AUX)
    Blend: HEAVY-AUG-CC-PVDZ-JKFIT
  Charge       = 0
  Multiplicity = 1
  Basis Set: 6-31+G*
    Blend: 6-31+G*
  Basis Set: (6-31+G* AUX)
    Blend: HEAVY-AUG-CC-PVDZ-JKFIT

    Orbital Energies [Eh]
    ---------------------

    Doubly Occupied:

       1A    -89.079328     2A    -24.875848     3A    -24.874215
       4A    -19.306542     5A    -19.296327     6A    -14.541370
       7A    -10.500769     8A    -10.454936     9A    -10.430148
      10A    -10.406560    11A    -10.383405    12A    -10.354121
      13A    -10.349963    14A    -10.349611    15A    -10.348850
      16A    -10.339098    17A     -8.096792    18A     -6.047529
      19A     -6.043201    20A     -6.036763    21A     -1.395631
      22A     -1.333913    23A     -1.196190    24A     -1.185550
      25A     -1.100406    26A     -1.005037    27A     -0.942862
      28A     -0.906835    29A     -0.890784    30A     -0.867584
      31A     -0.796431    32A     -0.769995    33A     -0.756644
      34A     -0.741338    35A     -0.698699    36A     -0.681238
      37A     -0.673418    38A     -0.647968    39A     -0.630775
      40A     -0.593210    41A     -0.584730    42A     -0.572497
      43A     -0.565154    44A     -0.562713    45A     -0.557338
      46A     -0.550656    47A     -0.545677    48A     -0.535569
      49A     -0.526812    50A     -0.518349    51A     -0.513379
      52A     -0.502354    53A     -0.493362    54A     -0.481297
      55A     -0.471895    56A     -0.444645    57A     -0.430441
      58A     -0.397034    59A     -0.389656    60A     -0.366336
      61A     -0.342642    62A     -0.320347

  @DF-RKS Final Energy: -1188.12191602292614

   => Energetics <=

    Nuclear Repulsion Energy =           1195.3209264291474483
    One-Electron Energy =               -4004.5408939821290915
    Two-Electron Energy =                1710.6688386448149686
    DFT Exchange-Correlation Energy =     -89.5569289400879143
    Empirical Dispersion Energy =          -0.0138581746713288
    VV10 Nonlocal Energy =                  0.0000000000000000
    Total Energy =                      -1188.1219160229261433

  Dipole Moment: [D]
     X:     6.8569      Y:    -1.0928      Z:    -1.8383     Total:     7.1827

    Molecular point group: c1
  Basis Set: 6-31+G*
    Blend: 6-31+G*
  Basis Set: (6-31+G* AUX)
    Blend: HEAVY-AUG-CC-PVDZ-JKFIT

  -Total Gradient:
     Atom            X                  Y                   Z
    ------   -----------------  -----------------  -----------------
       1        0.000050095731    -0.000056788354     0.000087615301
       2       -0.000371517470    -0.000248531611     0.000219456387
       3       -0.001571791370     0.000206276125    -0.000452379142
       4        0.000379923338    -0.000461988315     0.001464009132
       5        0.001991426539     0.000156563028    -0.000968292126
       6        0.000149945043    -0.000392773937    -0.000289224512
       7       -0.000366751136     0.000158691013     0.000020427454
       8        0.000011753264     0.000102905653     0.000051707766
       9        0.000063866533     0.000501908803    -0.001060146926
      10        0.000163982114    -0.000897129080     0.000962562756
      11        0.000262187615    -0.000113329675     0.000484769173
      12        0.000041388589    -0.000109260821    -0.000185107502
      13       -0.000218501681    -0.000286405748     0.000086454636
      14        0.001253956503     0.000416744631    -0.000208518141
      15        0.000214699004     0.000208299997    -0.000102720046
      16       -0.000151762897     0.000434117281     0.000286221821
      17        0.000073367506    -0.000030619557    -0.000005295195
      18        0.000037790200     0.000036580419     0.000019920390
      19        0.000008550369    -0.000004173230    -0.000128997485
      20        0.000111007536    -0.000055185889    -0.000023361490
      21       -0.001028709465     0.000286888068    -0.000300357993
      22        0.000052955654     0.000033278100     0.000020824790
      23        0.000076014000     0.000039105014     0.000060361433

  **** Optimization is complete! (in 14 steps) ****
    Final optimized geometry and variables:
    Molecular point group: c1

    Geometry (in Angstrom), charge = 0, multiplicity = 1:

    N           -0.583210828292    -1.571568932199    -0.174819371090
    C           -1.946995421031    -1.594860118276    -0.036879126211
    C           -2.593276270767    -0.193969800022     0.047929051840
    F           -2.792609928631     0.201942067028    -1.252926780011
    F           -3.777836533233    -0.277909199078     0.650871453193
    C           -1.718351990377     0.910337824129     0.691172260746
    C           -0.276620902372     0.766434925744     0.446578463095
    C            0.593832315865     1.838847328302     0.672890806288
    C            1.951288208620     1.714004480598     0.444236471772
    C            2.473602116546     0.484657342971     0.007894578509
    C            1.620254751779    -0.598539509099    -0.201128569866
    C            0.248554556335    -0.459866683808     0.007909466770
    S            4.228333264441     0.379974438535    -0.202104320249
    C            4.398281631053    -0.746146687678    -1.614214510392
    O           -2.599778658622    -2.611289422708    -0.050588004837
    O           -2.237344987794     1.827417261706     1.284563104864
    H            2.613920891329     2.561289857314     0.587335086935
    H            0.170840830244     2.779589531177     1.011812480178
    H           -0.155603762771    -2.477371679584    -0.324181492884
    H            2.013502769807    -1.560889402477    -0.514233575702
    H            4.047252893951    -1.755500503126    -1.388316949811
    H            3.870131851515    -0.353804463985    -2.486433297815
    H            5.467602530759    -0.792142923579    -1.833468958546

*** Psi4 exiting successfully. Buy a developer a beer!
