                               Psi4 1.3.2 release

  ==> Input File <==

--------------------------------------------------------------------------
molecule {
0 1
 N   -1.091141   -1.487163    0.013835
 C   -2.382773   -1.165431    0.338967
 C   -2.672797    0.353959    0.574656
 F   -3.635275    0.736026   -0.332738
 F   -3.198450    0.484186    1.840869
 C   -1.464960    1.346330    0.446382
 C   -0.144807    0.778845    0.087578
 C    0.979303    1.623632   -0.040482
 C    2.236812    1.108650   -0.382329
 C    2.406744   -0.285775   -0.605717
 C    1.280664   -1.128840   -0.468456
 C    0.016659   -0.617334   -0.125927
 S    3.925809   -1.119164   -1.013910
 C    5.269818    0.102005   -0.961744
 O   -3.234070   -2.038504    0.426637
 O   -1.622886    2.548491    0.637048
 H    3.061979    1.810608   -0.489274
 H    0.843016    2.691808    0.132608
 H   -0.970137   -2.480351   -0.130435
 H    1.393345   -2.202429   -0.628964
 H    6.168050   -0.388477   -0.573785
 H    5.452945    0.483963   -1.970388
 H    5.020184    0.922902   -0.285394
}
set optking {
  frozen_dihedral = ("
    11 10 13 14
    9 10 13 14
    21 14 13 10
  ")
}
set {
  geom_maxiter 400
  g_convergence GAU_LOOSE
  dynamic_level 1
}
memory 16GB
set_num_threads(8)
psi4_io.set_default_path("/scratch/Psi4-ligand")
for _ in range(1):
  try:
    set opt_coordinates both
    optimize('wb97x-d/6-31+G*')
    break
  except OptimizationConvergenceError:
    break
  else:
    try:
      set opt_coordinates cartesian
      optimize('wb97x-d/6-31+G*')
      break
    except OptimizationConvergenceError:
      pass
clean()
--------------------------------------------------------------------------

    Molecular point group: c1
  Charge       = 0
  Multiplicity = 1
  Basis Set: 6-31+G*
    Blend: 6-31+G*
  Basis Set: (6-31+G* AUX)
    Blend: HEAVY-AUG-CC-PVDZ-JKFIT
  @DF-RKS Final Energy: -1188.11351801766796
    Total Energy =                      -1188.1135180176677295
    Molecular point group: c1
  Basis Set: 6-31+G*
    Blend: 6-31+G*
  Basis Set: (6-31+G* AUX)
    Blend: HEAVY-AUG-CC-PVDZ-JKFIT
  Basis Set: 6-31+G*
    Blend: 6-31+G*
  Basis Set: (6-31+G* AUX)
    Blend: HEAVY-AUG-CC-PVDZ-JKFIT
  @DF-RKS Final Energy: -1188.11932795109374
    Total Energy =                      -1188.1193279510937373
  Basis Set: 6-31+G*
    Blend: 6-31+G*
  Basis Set: (6-31+G* AUX)
    Blend: HEAVY-AUG-CC-PVDZ-JKFIT
  Basis Set: 6-31+G*
    Blend: 6-31+G*
  @DF-RKS Final Energy: -1188.11962561521545
    Total Energy =                      -1188.1196256152152273
  @DF-RKS Final Energy: -1188.11978067438531
    Total Energy =                      -1188.1197806743850833
  @DF-RKS Final Energy: -1188.11973371633349
    Total Energy =                      -1188.1197337163334851
  @DF-RKS Final Energy: -1188.11977991405161
    Total Energy =                      -1188.1197799140516054
  @DF-RKS Final Energy: -1188.11975655522542
    Total Energy =                      -1188.1197565552254218
  @DF-RKS Final Energy: -1188.11978185712064
    Total Energy =                      -1188.1197818571206426
  @DF-RKS Final Energy: -1188.11978678959008
    Total Energy =                      -1188.1197867895898526
  @DF-RKS Final Energy: -1188.11979331262864
    Total Energy =                      -1188.1197933126284170
  @DF-RKS Final Energy: -1188.11983078768844
    Total Energy =                      -1188.1198307876884428
  @DF-RKS Final Energy: -1188.11986709609414
    Total Energy =                      -1188.1198670960941399
  @DF-RKS Final Energy: -1188.11995662509980
    Total Energy =                      -1188.1199566250993485
  @DF-RKS Final Energy: -1188.12020095635148
    Total Energy =                      -1188.1202009563512547
  @DF-RKS Final Energy: -1188.12039474824974
    Total Energy =                      -1188.1203947482495096
  @DF-RKS Final Energy: -1188.12055031358227
    Total Energy =                      -1188.1205503135822710
  @DF-RKS Final Energy: -1188.12064549301203
    Total Energy =                      -1188.1206454930120344
  @DF-RKS Final Energy: -1188.12062541692717
    Total Energy =                      -1188.1206254169273961
  @DF-RKS Final Energy: -1188.12065059103793
    Total Energy =                      -1188.1206505910381566
  @DF-RKS Final Energy: -1188.12063272250157
    Total Energy =                      -1188.1206327225017958
  @DF-RKS Final Energy: -1188.12064246466957
    Total Energy =                      -1188.1206424646695723
  Basis Set: (6-31+G* AUX)
    Blend: HEAVY-AUG-CC-PVDZ-JKFIT
  Basis Set: 6-31+G*
    Blend: 6-31+G*
  Basis Set: (6-31+G* AUX)
    Blend: HEAVY-AUG-CC-PVDZ-JKFIT
  @DF-RKS Final Energy: -1188.12065041216033
    Total Energy =                      -1188.1206504121605576
  Basis Set: 6-31+G*
    Blend: 6-31+G*
  Basis Set: (6-31+G* AUX)
    Blend: HEAVY-AUG-CC-PVDZ-JKFIT
  Charge       = 0
  Multiplicity = 1
  Basis Set: 6-31+G*
    Blend: 6-31+G*
  Basis Set: (6-31+G* AUX)
    Blend: HEAVY-AUG-CC-PVDZ-JKFIT

    Orbital Energies [Eh]
    ---------------------

    Doubly Occupied:

       1A    -89.083915     2A    -24.872341     3A    -24.871519
       4A    -19.302555     5A    -19.292896     6A    -14.539397
       7A    -10.498589     8A    -10.452440     9A    -10.427446
      10A    -10.404683    11A    -10.387783    12A    -10.355962
      13A    -10.350168    14A    -10.346676    15A    -10.345830
      16A    -10.340884    17A     -8.101577    18A     -6.052296
      19A     -6.047725    20A     -6.041766    21A     -1.391478
      22A     -1.330119    23A     -1.193148    24A     -1.182013
      25A     -1.098091    26A     -1.005118    27A     -0.943384
      28A     -0.906736    29A     -0.888356    30A     -0.868952
      31A     -0.799526    32A     -0.765081    33A     -0.753705
      34A     -0.745014    35A     -0.696776    36A     -0.681680
      37A     -0.669961    38A     -0.645647    39A     -0.630189
      40A     -0.592146    41A     -0.586480    42A     -0.569101
      43A     -0.562665    44A     -0.557903    45A     -0.556935
      46A     -0.551895    47A     -0.548970    48A     -0.534101
      49A     -0.520299    50A     -0.514597    51A     -0.508616
      52A     -0.498329    53A     -0.491341    54A     -0.488066
      55A     -0.474595    56A     -0.442556    57A     -0.430964
      58A     -0.397914    59A     -0.394608    60A     -0.363734
      61A     -0.339592    62A     -0.317769

  @DF-RKS Final Energy: -1188.12069737977049

   => Energetics <=

    Nuclear Repulsion Energy =           1189.6256013538720708
    One-Electron Energy =               -3993.2456460480843816
    Two-Electron Energy =                1705.0688007003650455
    DFT Exchange-Correlation Energy =     -89.5558528038793469
    Empirical Dispersion Energy =          -0.0136005820439839
    VV10 Nonlocal Energy =                  0.0000000000000000
    Total Energy =                      -1188.1206973797704904

  Dipole Moment: [D]
     X:     7.8184      Y:    -0.8375      Z:    -2.1436     Total:     8.1501

    Molecular point group: c1
  Basis Set: 6-31+G*
    Blend: 6-31+G*
  Basis Set: (6-31+G* AUX)
    Blend: HEAVY-AUG-CC-PVDZ-JKFIT

  -Total Gradient:
     Atom            X                  Y                   Z
    ------   -----------------  -----------------  -----------------
       1        0.000200597551     0.000055567390     0.000503556015
       2       -0.000254603236    -0.000049615162    -0.001279111931
       3        0.000123254845     0.000176260238     0.001651123340
       4        0.000097811925    -0.000371580340     0.000006114546
       5        0.000188575823    -0.000060663674    -0.000193197334
       6        0.000069240565    -0.000077344815    -0.000379290587
       7       -0.000179341901    -0.000149412857     0.000202564503
       8        0.000037053836     0.000019149652     0.000027378833
       9        0.000458876790    -0.000321990235     0.002292890406
      10       -0.000640754696    -0.000005138036    -0.001883432398
      11        0.000183079552    -0.000019946353     0.000324540991
      12        0.000067635130     0.000039511709     0.000216562310
      13       -0.000048341743     0.000408216682     0.000312049396
      14        0.001188247870    -0.000994020488    -0.005297373746
      15       -0.000157944482     0.000004439397     0.000003927227
      16       -0.000144686938     0.000141322434    -0.000249385173
      17       -0.000400076766     0.000148208057    -0.000050547877
      18       -0.000049737881    -0.000023374075     0.000027738567
      19       -0.000123622560     0.000004555677    -0.000127516134
      20        0.000011075923    -0.000000637082     0.000011281827
      21       -0.000323313182     0.000772540089     0.003845780295
      22        0.000199863672     0.000017099519    -0.000020366048
      23        0.000499943901    -0.000363817144     0.000003076835

  **** Optimization is complete! (in 2 steps) ****
    Final optimized geometry and variables:
    Molecular point group: c1

    Geometry (in Angstrom), charge = 0, multiplicity = 1:

    N           -1.004325669602    -1.506978100077     0.187257432870
    C           -2.257627494285    -1.177496364460     0.632675718832
    C           -2.555045222114     0.338858602798     0.664043456312
    F           -3.146341608749     0.619409716689    -0.544679479821
    F           -3.434560394158     0.601380539622     1.635576600275
    C           -1.332978695181     1.286459571929     0.762849696095
    C           -0.075272422718     0.746121567849     0.235977562340
    C            1.022830238444     1.584464276635     0.024363773014
    C            2.223175405642     1.096882481768    -0.462426174145
    C            2.351179602962    -0.272845241471    -0.743187949950
    C            1.261475120612    -1.124987095694    -0.525570416760
    C            0.056407654144    -0.624930798869    -0.045117584228
    S            3.811871412131    -1.071953639705    -1.330460600895
    C            5.107862556944     0.198343539838    -1.350446478659
    O           -3.094827900499    -1.999253237627     0.923522005451
    O           -1.481557285929     2.405761654590     1.198490586188
    H            3.034860187798     1.789578698752    -0.647295488457
    H            0.906239410550     2.641289164139     0.244663153551
    H           -0.840204129170    -2.500938640869     0.082436132811
    H            1.360431587474    -2.189098435070    -0.726037056257
    H            6.036118367915    -0.304312184044    -1.068209719864
    H            5.205454637846     0.668694615500    -2.330015223336
    H            4.927329124390     0.955808800972    -0.585434155033

*** Psi4 exiting successfully. Buy a developer a beer!
