                               Psi4 1.3.2 release

  ==> Input File <==

--------------------------------------------------------------------------
molecule {
0 1
 N   -0.964681   -1.544134    0.225212
 C   -2.233253   -1.232519    0.640458
 C   -2.575062    0.273342    0.564253
 F   -3.053614    0.483348   -0.709536
 F   -3.547829    0.559081    1.433852
 C   -1.380559    1.247499    0.730217
 C   -0.098206    0.736558    0.231930
 C    0.980478    1.601435    0.028119
 C    2.201962    1.136268   -0.428083
 C    2.367370   -0.234617   -0.681993
 C    1.302032   -1.115369   -0.460888
 C    0.074622   -0.637649   -0.015348
 S    3.871911   -0.965568   -1.235944
 C    5.044662    0.410935   -1.229094
 O   -3.044580   -2.062438    0.977246
 O   -1.561972    2.354060    1.185225
 H    3.011462    1.837605   -0.591381
 H    0.833585    2.657977    0.232015
 H   -0.760755   -2.535356    0.185827
 H    1.435394   -2.180028   -0.636998
 H    6.014976   -0.032612   -1.464157
 H    4.803524    1.156861   -1.990064
 H    5.107030    0.875931   -0.242134
}
memory 16GB
set_num_threads(8)
psi4_io.set_default_path("/scratch/Psi4-ligand")
set freeze_core True
E, wfn = energy('wb97x-d/6-311++g**',return_wfn=True)
oeprop(wfn,"WIBERG_LOWDIN_INDICES")
clean()
--------------------------------------------------------------------------

    Molecular point group: c1

    Geometry (in Angstrom), charge = 0, multiplicity = 1:

       Center              X                  Y                   Z               Mass
    ------------   -----------------  -----------------  -----------------  -----------------
         N           -0.964680940798    -1.544134121072     0.225211791827    14.003074004430
         C           -2.233252940798    -1.232519121072     0.640457791827    12.000000000000
         C           -2.575061940798     0.273341878928     0.564252791827    12.000000000000
         F           -3.053613940798     0.483347878928    -0.709536208173    18.998403162730
         F           -3.547828940798     0.559080878928     1.433851791827    18.998403162730
         C           -1.380558940798     1.247498878928     0.730216791827    12.000000000000
         C           -0.098205940798     0.736557878928     0.231929791827    12.000000000000
         C            0.980478059202     1.601434878928     0.028118791827    12.000000000000
         C            2.201962059202     1.136267878928    -0.428083208173    12.000000000000
         C            2.367370059202    -0.234617121072    -0.681993208173    12.000000000000
         C            1.302032059202    -1.115369121072    -0.460888208173    12.000000000000
         C            0.074622059202    -0.637649121072    -0.015348208173    12.000000000000
         S            3.871911059202    -0.965568121072    -1.235944208173    31.972071174400
         C            5.044662059202     0.410934878928    -1.229094208173    12.000000000000
         O           -3.044579940798    -2.062438121072     0.977245791827    15.994914619570
         O           -1.561971940798     2.354059878928     1.185224791827    15.994914619570
         H            3.011462059202     1.837604878928    -0.591381208173     1.007825032230
         H            0.833585059202     2.657976878928     0.232014791827     1.007825032230
         H           -0.760754940798    -2.535356121072     0.185826791827     1.007825032230
         H            1.435394059202    -2.180028121072    -0.636998208173     1.007825032230
         H            6.014976059202    -0.032612121072    -1.464157208173     1.007825032230
         H            4.803524059202     1.156860878928    -1.990064208173     1.007825032230
         H            5.107030059202     0.875930878928    -0.242134208173     1.007825032230

  Charge       = 0
  Multiplicity = 1
  Basis Set: 6-311++G**
    Blend: 6-311++G**
  Basis Set: (6-311++G** AUX)
    Blend: AUG-CC-PVTZ-JKFIT

    Orbital Energies [Eh]
    ---------------------

    Doubly Occupied:

       1A    -89.052959     2A    -24.841389     3A    -24.840101
       4A    -19.271795     5A    -19.262197     6A    -14.515324
       7A    -10.484709     8A    -10.436882     9A    -10.412086
      10A    -10.389730    11A    -10.370730    12A    -10.340982
      13A    -10.334361    14A    -10.330793    15A    -10.329996
      16A    -10.323619    17A     -8.093614    18A     -6.043075
      19A     -6.038666    20A     -6.032776    21A     -1.390623
      22A     -1.329192    23A     -1.193046    24A     -1.181823
      25A     -1.097760    26A     -1.005742    27A     -0.944696
      28A     -0.907715    29A     -0.888067    30A     -0.868803
      31A     -0.799057    32A     -0.765375    33A     -0.753781
      34A     -0.745016    35A     -0.697432    36A     -0.681768
      37A     -0.670803    38A     -0.645690    39A     -0.630444
      40A     -0.593309    41A     -0.588443    42A     -0.570977
      43A     -0.564260    44A     -0.559976    45A     -0.557598
      46A     -0.551101    47A     -0.548316    48A     -0.535270
      49A     -0.521032    50A     -0.514899    51A     -0.510192
      52A     -0.499221    53A     -0.492819    54A     -0.487964
      55A     -0.475720    56A     -0.443588    57A     -0.433741
      58A     -0.399100    59A     -0.396032    60A     -0.365191
      61A     -0.341205    62A     -0.319387

  @DF-RKS Final Energy: -1188.33535414586026

   => Energetics <=

    Nuclear Repulsion Energy =           1191.8007203766564999
    One-Electron Energy =               -3998.5755821932684739
    Two-Electron Energy =                1708.1911142720173302
    DFT Exchange-Correlation Energy =     -89.7377512942326518
    Empirical Dispersion Energy =          -0.0138553070330104
    VV10 Nonlocal Energy =                  0.0000000000000000
    Total Energy =                      -1188.3353541458602649

  Dipole Moment: [D]
     X:     7.7612      Y:    -0.7037      Z:    -1.9648     Total:     8.0369

*** Psi4 exiting successfully. Buy a developer a beer!
