                               Psi4 1.3.2 release

  ==> Input File <==

--------------------------------------------------------------------------
molecule {
0 1
 N   -1.057407   -1.465770    0.311409
 C   -2.380078   -1.135195    0.449108
 C   -2.729198    0.380454    0.280503
 F   -3.659608    0.481708   -0.729878
 F   -3.317419    0.801083    1.452048
 C   -1.549008    1.359832   -0.046665
 C   -0.188659    0.784397   -0.154073
 C    0.913394    1.617722   -0.443504
 C    2.208295    1.093783   -0.554354
 C    2.440368   -0.298928   -0.379166
 C    1.334269   -1.126954   -0.079540
 C    0.032315   -0.607633    0.028793
 S    4.004715   -1.148737   -0.460110
 C    5.342174    0.065673   -0.671572
 O   -3.211474   -1.998466    0.690649
 O   -1.759414    2.558948   -0.202069
 H    3.015346    1.786703   -0.780339
 H    0.730231    2.684132   -0.581148
 H   -0.897549   -2.456480    0.432883
 H    1.491942   -2.196312    0.070623
 H    5.968536    0.055914    0.225725
 H    5.946785   -0.231097   -1.534379
 H    4.959470    1.073164   -0.835909
}
set optking {
  frozen_dihedral = ("
    11 10 13 14
    9 10 13 14
    21 14 13 10
  ")
}
set {
  geom_maxiter 400
  g_convergence GAU_LOOSE
  dynamic_level 1
}
memory 16GB
set_num_threads(8)
psi4_io.set_default_path("/scratch/Psi4-ligand")
for _ in range(1):
  try:
    set opt_coordinates both
    optimize('wb97x-d/6-31+G*')
    break
  except OptimizationConvergenceError:
    break
  else:
    try:
      set opt_coordinates cartesian
      optimize('wb97x-d/6-31+G*')
      break
    except OptimizationConvergenceError:
      pass
clean()
--------------------------------------------------------------------------

    Molecular point group: c1
  Charge       = 0
  Multiplicity = 1
  Basis Set: 6-31+G*
    Blend: 6-31+G*
  Basis Set: (6-31+G* AUX)
    Blend: HEAVY-AUG-CC-PVDZ-JKFIT
  @DF-RKS Final Energy: -1188.11156512686398
    Total Energy =                      -1188.1115651268642068
    Molecular point group: c1
  Basis Set: 6-31+G*
    Blend: 6-31+G*
  Basis Set: (6-31+G* AUX)
    Blend: HEAVY-AUG-CC-PVDZ-JKFIT
  Basis Set: 6-31+G*
    Blend: 6-31+G*
  Basis Set: (6-31+G* AUX)
    Blend: HEAVY-AUG-CC-PVDZ-JKFIT
  @DF-RKS Final Energy: -1188.06483411409636
    Total Energy =                      -1188.0648341140963566
  Basis Set: 6-31+G*
    Blend: 6-31+G*
  Basis Set: (6-31+G* AUX)
    Blend: HEAVY-AUG-CC-PVDZ-JKFIT
  Basis Set: 6-31+G*
    Blend: 6-31+G*
  @DF-RKS Final Energy: -1188.11590304236302
    Total Energy =                      -1188.1159030423630156
  @DF-RKS Final Energy: -1188.11739640807104
    Total Energy =                      -1188.1173964080710448
  @DF-RKS Final Energy: -1188.11751881904047
    Total Energy =                      -1188.1175188190404697
  @DF-RKS Final Energy: -1188.11753804699561
    Total Energy =                      -1188.1175380469956053
  @DF-RKS Final Energy: -1188.11755314531661
    Total Energy =                      -1188.1175531453166059
  @DF-RKS Final Energy: -1188.11759036459830
    Total Energy =                      -1188.1175903645980725
  @DF-RKS Final Energy: -1188.11774351409099
    Total Energy =                      -1188.1177435140909893
  @DF-RKS Final Energy: -1188.11791577501322
    Total Energy =                      -1188.1179157750132163
  @DF-RKS Final Energy: -1188.11801874174944
    Total Energy =                      -1188.1180187417494380
  @DF-RKS Final Energy: -1188.11811962932984
    Total Energy =                      -1188.1181196293298399
  @DF-RKS Final Energy: -1188.11827786946401
    Total Energy =                      -1188.1182778694640092
  @DF-RKS Final Energy: -1188.11825182030566
    Total Energy =                      -1188.1182518203056588
  @DF-RKS Final Energy: -1188.11827568143531
    Total Energy =                      -1188.1182756814355344
  @DF-RKS Final Energy: -1188.11817788336430
    Total Energy =                      -1188.1181778833640692
  @DF-RKS Final Energy: -1188.11837896676548
    Total Energy =                      -1188.1183789667654764
  @DF-RKS Final Energy: -1188.11849354409833
    Total Energy =                      -1188.1184935440983281
  @DF-RKS Final Energy: -1188.11848087986573
    Total Energy =                      -1188.1184808798659560
  Basis Set: (6-31+G* AUX)
    Blend: HEAVY-AUG-CC-PVDZ-JKFIT
  Basis Set: 6-31+G*
    Blend: 6-31+G*
  Basis Set: (6-31+G* AUX)
    Blend: HEAVY-AUG-CC-PVDZ-JKFIT
  @DF-RKS Final Energy: -1188.11852464137928
    Total Energy =                      -1188.1185246413792811
  Basis Set: 6-31+G*
    Blend: 6-31+G*
  Basis Set: (6-31+G* AUX)
    Blend: HEAVY-AUG-CC-PVDZ-JKFIT
  Charge       = 0
  Multiplicity = 1
  Basis Set: 6-31+G*
    Blend: 6-31+G*
  Basis Set: (6-31+G* AUX)
    Blend: HEAVY-AUG-CC-PVDZ-JKFIT

    Orbital Energies [Eh]
    ---------------------

    Doubly Occupied:

       1A    -89.083339     2A    -24.873503     3A    -24.871463
       4A    -19.303069     5A    -19.293404     6A    -14.538589
       7A    -10.498493     8A    -10.452200     9A    -10.427536
      10A    -10.404002    11A    -10.388070    12A    -10.355313
      13A    -10.350135    14A    -10.346062    15A    -10.345359
      16A    -10.340895    17A     -8.101062    18A     -6.051799
      19A     -6.047203    20A     -6.041224    21A     -1.392245
      22A     -1.331062    23A     -1.193903    24A     -1.181828
      25A     -1.097800    26A     -1.004972    27A     -0.942832
      28A     -0.906525    29A     -0.888386    30A     -0.868934
      31A     -0.799655    32A     -0.764834    33A     -0.753648
      34A     -0.744851    35A     -0.697141    36A     -0.680942
      37A     -0.670663    38A     -0.645272    39A     -0.630985
      40A     -0.592777    41A     -0.588007    42A     -0.569855
      43A     -0.562966    44A     -0.558416    45A     -0.556674
      46A     -0.548973    47A     -0.547071    48A     -0.534676
      49A     -0.520110    50A     -0.514997    51A     -0.509999
      52A     -0.499011    53A     -0.490986    54A     -0.488764
      55A     -0.474710    56A     -0.442785    57A     -0.430906
      58A     -0.397802    59A     -0.394508    60A     -0.363662
      61A     -0.339497    62A     -0.316311

  @DF-RKS Final Energy: -1188.11855318164635

   => Energetics <=

    Nuclear Repulsion Energy =           1190.2959711796972897
    One-Electron Energy =               -3994.5845679907070007
    Two-Electron Energy =                1705.7418191529402520
    DFT Exchange-Correlation Energy =     -89.5582574720049251
    Empirical Dispersion Energy =          -0.0135180515722860
    VV10 Nonlocal Energy =                  0.0000000000000000
    Total Energy =                      -1188.1185531816463481

  Dipole Moment: [D]
     X:     7.9450      Y:    -1.3943      Z:    -0.5660     Total:     8.0862

    Molecular point group: c1
  Basis Set: 6-31+G*
    Blend: 6-31+G*
  Basis Set: (6-31+G* AUX)
    Blend: HEAVY-AUG-CC-PVDZ-JKFIT

  -Total Gradient:
     Atom            X                  Y                   Z
    ------   -----------------  -----------------  -----------------
       1       -0.000361908115    -0.000019607579     0.000070610508
       2       -0.000934968587    -0.000916647936    -0.000462278264
       3       -0.001068411043     0.000100248916     0.001474261620
       4        0.000241177099    -0.000284159541    -0.000190511029
       5        0.000248428379    -0.000107372771    -0.001088154520
       6        0.000246639764    -0.001517119013    -0.000407988706
       7        0.000324296049    -0.000006671905     0.000393657203
       8       -0.000149025492    -0.000056415536    -0.000257185302
       9        0.000330004166    -0.000429908710     0.001110966559
      10        0.000070190777     0.000894780813    -0.003903925744
      11        0.000202518158    -0.000220302101     0.001291514551
      12        0.000128943773     0.000184945502    -0.000309303588
      13       -0.000029087159    -0.000591140625     0.001311916485
      14       -0.000356350217     0.000980455724     0.000740629877
      15        0.001502677503     0.001062661224     0.000433931191
      16       -0.000114814215     0.001333332297     0.000062753911
      17        0.000318744797    -0.000052762146     0.000031894024
      18        0.000068905880    -0.000067244530     0.000085784766
      19       -0.000037460516     0.000009211580     0.000128098030
      20        0.000063366686     0.000014463284     0.000052780397
      21        0.000516528441    -0.000623671020    -0.000522723478
      22       -0.000094045015    -0.000048855755     0.000011738538
      23       -0.000265064316     0.000185134318     0.000025257659

  **** Optimization is complete! (in 5 steps) ****
    Final optimized geometry and variables:
    Molecular point group: c1

    Geometry (in Angstrom), charge = 0, multiplicity = 1:

    N           -1.153345278138    -1.377093137778    -0.310259361820
    C           -2.445895886574    -0.937255950803    -0.190506303677
    C           -2.581009953855     0.491564812666     0.382834822659
    F           -3.738183896506     1.026716655634    -0.013081436726
    F           -2.612884482200     0.342546183010     1.748092594593
    C           -1.397887458548     1.449945921497     0.091983875523
    C           -0.088483039775     0.795584456565    -0.012795043427
    C            1.089928907707     1.543682376511     0.046123534036
    C            2.333546924473     0.945916768903    -0.063299873154
    C            2.420728740624    -0.440349743915    -0.258615767820
    C            1.246602510462    -1.201478102097    -0.319192199505
    C            0.001856721999    -0.593955008981    -0.204889308443
    S            3.905230848713    -1.384714839827    -0.410243459787
    C            5.291548587243    -0.243466321913    -0.123222962522
    O           -3.406401683091    -1.623576949115    -0.443378625915
    O           -1.588563899198     2.643988377396     0.031436125063
    H            3.217566812414     1.567955829021    -0.002422900950
    H            1.006996750794     2.616563320734     0.190737289495
    H           -1.058789590906    -2.343169747894    -0.599131687020
    H            1.308849057998    -2.278161099274    -0.457314864381
    H            5.806635689539    -0.526771498336     0.796313581486
    H            5.980206505815    -0.327592303957    -0.965839323844
    H            4.967451396580     0.793338010924    -0.047438901784

*** Psi4 exiting successfully. Buy a developer a beer!
