                               Psi4 1.3.2 release

  ==> Input File <==

--------------------------------------------------------------------------
molecule {
0 1
 N   -0.705894   -1.621413   -0.262414
 C   -1.966032   -1.664636    0.272847
 C   -2.414885   -0.402294    1.046734
 F   -3.597741   -0.003195    0.525818
 F   -2.620165   -0.778434    2.334291
 C   -1.456087    0.820075    1.061917
 C   -0.147639    0.652825    0.414172
 C    0.777749    1.704917    0.425210
 C    2.016296    1.571084   -0.172693
 C    2.346715    0.368482   -0.817664
 C    1.433570   -0.682376   -0.844060
 C    0.190782   -0.550724   -0.219907
 S    3.939350    0.117328   -1.572106
 C    4.013335    1.525187   -2.719354
 O   -2.690214   -2.627080    0.173076
 O   -1.827000    1.833431    1.608462
 H    2.734618    2.382558   -0.124791
 H    0.498329    2.623411    0.931407
 H   -0.425290   -2.466313   -0.745784
 H    1.689218   -1.602748   -1.361159
 H    3.251044    1.434721   -3.495825
 H    3.913238    2.480198   -2.200267
 H    5.001085    1.485701   -3.185316
}
memory 16GB
set_num_threads(8)
psi4_io.set_default_path("/scratch/Psi4-ligand")
set freeze_core True
E, wfn = energy('wb97x-d/6-311++g**',return_wfn=True)
oeprop(wfn,"WIBERG_LOWDIN_INDICES")
clean()
--------------------------------------------------------------------------

    Molecular point group: c1

    Geometry (in Angstrom), charge = 0, multiplicity = 1:

       Center              X                  Y                   Z               Mass
    ------------   -----------------  -----------------  -----------------  -----------------
         N           -0.705894115120    -1.621413005918    -0.262413922149    14.003074004430
         C           -1.966032115120    -1.664636005918     0.272847077851    12.000000000000
         C           -2.414885115120    -0.402294005918     1.046734077851    12.000000000000
         F           -3.597741115120    -0.003195005918     0.525818077851    18.998403162730
         F           -2.620165115120    -0.778434005918     2.334291077851    18.998403162730
         C           -1.456087115120     0.820074994082     1.061917077851    12.000000000000
         C           -0.147639115120     0.652824994082     0.414172077851    12.000000000000
         C            0.777748884880     1.704916994082     0.425210077851    12.000000000000
         C            2.016295884880     1.571083994082    -0.172692922149    12.000000000000
         C            2.346714884880     0.368481994082    -0.817663922149    12.000000000000
         C            1.433569884880    -0.682376005918    -0.844059922149    12.000000000000
         C            0.190781884880    -0.550724005918    -0.219906922149    12.000000000000
         S            3.939349884880     0.117327994082    -1.572105922149    31.972071174400
         C            4.013334884880     1.525186994082    -2.719353922149    12.000000000000
         O           -2.690214115120    -2.627080005918     0.173076077851    15.994914619570
         O           -1.827000115120     1.833430994082     1.608462077851    15.994914619570
         H            2.734617884880     2.382557994082    -0.124790922149     1.007825032230
         H            0.498328884880     2.623410994082     0.931407077851     1.007825032230
         H           -0.425290115120    -2.466313005918    -0.745783922149     1.007825032230
         H            1.689217884880    -1.602748005918    -1.361158922149     1.007825032230
         H            3.251043884880     1.434720994082    -3.495824922149     1.007825032230
         H            3.913237884880     2.480197994082    -2.200266922149     1.007825032230
         H            5.001084884880     1.485700994082    -3.185315922149     1.007825032230

  Charge       = 0
  Multiplicity = 1
  Basis Set: 6-311++G**
    Blend: 6-311++G**
  Basis Set: (6-311++G** AUX)
    Blend: AUG-CC-PVTZ-JKFIT

    Orbital Energies [Eh]
    ---------------------

    Doubly Occupied:

       1A    -89.043374     2A    -24.842891     3A    -24.841890
       4A    -19.275302     5A    -19.263364     6A    -14.519983
       7A    -10.488432     8A    -10.439373     9A    -10.416168
      10A    -10.393755    11A    -10.367034    12A    -10.337715
      13A    -10.335826    14A    -10.334742    15A    -10.334257
      16A    -10.326404    17A     -8.083961    18A     -6.033516
      19A     -6.029423    20A     -6.022644    21A     -1.392921
      22A     -1.331455    23A     -1.195500    24A     -1.186282
      25A     -1.101685    26A     -1.006864    27A     -0.941286
      28A     -0.906382    29A     -0.890253    30A     -0.867954
      31A     -0.795388    32A     -0.769016    33A     -0.756211
      34A     -0.744458    35A     -0.699963    36A     -0.685946
      37A     -0.673453    38A     -0.648810    39A     -0.632081
      40A     -0.594220    41A     -0.584854    42A     -0.572343
      43A     -0.565514    44A     -0.560071    45A     -0.558749
      46A     -0.555739    47A     -0.541421    48A     -0.538016
      49A     -0.524966    50A     -0.519061    51A     -0.511838
      52A     -0.500786    53A     -0.498270    54A     -0.481086
      55A     -0.477817    56A     -0.444899    57A     -0.427539
      58A     -0.398831    59A     -0.382130    60A     -0.368410
      61A     -0.344474    62A     -0.327097

  @DF-RKS Final Energy: -1188.33123852131757

   => Energetics <=

    Nuclear Repulsion Energy =           1188.2215847105558169
    One-Electron Energy =               -3991.3674813497973446
    Two-Electron Energy =                1704.5625390277352835
    DFT Exchange-Correlation Energy =     -89.7342311977442222
    Empirical Dispersion Energy =          -0.0136497120669852
    VV10 Nonlocal Energy =                  0.0000000000000000
    Total Energy =                      -1188.3312385213175730

  Dipole Moment: [D]
     X:     6.1511      Y:     1.1751      Z:    -3.8349     Total:     7.3432

*** Psi4 exiting successfully. Buy a developer a beer!
