                               Psi4 1.3.2 release

  ==> Input File <==

--------------------------------------------------------------------------
molecule {
0 1
N -1.094217774737 -1.487434346328 0.044734188051
C -2.393766284091 -1.084690393087 0.219102553115
C -2.518912794393 0.393910866200 0.614721591325
F -3.779308569811 0.822437947023 0.411828787957
F -2.254065690124 0.443890224611 1.981068929562
C -1.494493955435 1.336972633504 -0.035019415147
C -0.148626848319 0.761464461058 -0.130673473182
C 0.966093973883 1.574023166747 -0.359831544999
C 2.235940653644 1.026208207308 -0.492029414843
C 2.402661068281 -0.369037318023 -0.452141474379
C 1.285490390705 -1.188209036645 -0.233643069962
C 0.012516838812 -0.636952350839 -0.118682856692
S 3.947656782038 -1.195173806920 -0.603452906238
C 5.125925240059 0.170227871907 -0.672827802055
O -3.358681255890 -1.835801997393 0.146441780890
O -1.806232766470 2.479921879276 -0.356540276490
H 3.078670632314 1.686980504747 -0.664031377417
H 0.820134140470 2.651536317192 -0.393333343872
H -0.979252307753 -2.477721674037 -0.159571669629
H 1.409589372453 -2.270637985816 -0.198005378341
H 4.999830475795 0.775197366197 -1.572771830540
H 5.068017769485 0.795712197720 0.219743201791
H 6.113062989299 -0.294882351719 -0.706051331098
}
memory 16GB
set_num_threads(8)
psi4_io.set_default_path("/scratch/Psi4-ligand")
set maxiter 500
set freeze_core True
set PROPERTIES_ORIGIN ["COM"]
set cubeprop_tasks ['esp']
E, wfn = properties('mp2/aug-cc-pVDZ',properties=['dipole'],return_wfn=True)
cubeprop(wfn)
fchk(wfn, "ligand-esp.fchk")
oeprop(wfn,"GRID_ESP","WIBERG_LOWDIN_INDICES","MULLIKEN_CHARGES")
clean()
--------------------------------------------------------------------------

    Molecular point group: c1
  Charge       = 0
  Multiplicity = 1
  Basis Set: AUG-CC-PVDZ
    Blend: AUG-CC-PVDZ
  Basis Set: (AUG-CC-PVDZ AUX)
    Blend: AUG-CC-PVDZ-JKFIT

    Orbital Energies [Eh]
    ---------------------

    Doubly Occupied:

       1A    -91.994499     2A    -26.351239     3A    -26.346032
       4A    -20.595799     5A    -20.585318     6A    -15.654497
       7A    -11.459849     8A    -11.414224     9A    -11.382757
      10A    -11.350975    11A    -11.327365    12A    -11.294396
      13A    -11.292670    14A    -11.278711    15A    -11.278234
      16A    -11.272590    17A     -8.996758    18A     -6.678914
      19A     -6.677194    20A     -6.675294    21A     -1.686767
      22A     -1.626072    23A     -1.429782    24A     -1.416622
      25A     -1.311536    26A     -1.198717    27A     -1.120606
      28A     -1.080570    29A     -1.056520    30A     -1.033706
      31A     -0.938396    32A     -0.901610    33A     -0.880700
      34A     -0.870834    35A     -0.813591    36A     -0.794802
      37A     -0.784289    38A     -0.746386    39A     -0.737765
      40A     -0.696444    41A     -0.692086    42A     -0.684583
      43A     -0.672453    44A     -0.657332    45A     -0.651874
      46A     -0.641058    47A     -0.640555    48A     -0.629993
      49A     -0.622047    50A     -0.604062    51A     -0.592874
      52A     -0.571818    53A     -0.551254    54A     -0.545461
      55A     -0.539158    56A     -0.486954    57A     -0.483589
      58A     -0.479900    59A     -0.451244    60A     -0.426605
      61A     -0.356316    62A     -0.334665

  @DF-RHF Final Energy: -1183.44253109240890

   => Energetics <=

    Nuclear Repulsion Energy =           1192.1922886930151435
    One-Electron Energy =               -3996.5718153506354611
    Two-Electron Energy =                1620.9369955652114186
    Total Energy =                      -1183.4425310924088990
  Basis Set: (AUG-CC-PVDZ AUX)
    Blend: AUG-CC-PVDZ-RI
    Molecular point group: c1

    Geometry (in Angstrom), charge = 0, multiplicity = 1:

       Center              X                  Y                   Z               Mass
    ------------   -----------------  -----------------  -----------------  -----------------
         N           -1.094217774737    -1.487434346328     0.044734188051    14.003074004430
         C           -2.393766284091    -1.084690393087     0.219102553115    12.000000000000
         C           -2.518912794393     0.393910866200     0.614721591325    12.000000000000
         F           -3.779308569811     0.822437947023     0.411828787957    18.998403162730
         F           -2.254065690124     0.443890224611     1.981068929562    18.998403162730
         C           -1.494493955435     1.336972633504    -0.035019415147    12.000000000000
         C           -0.148626848319     0.761464461058    -0.130673473182    12.000000000000
         C            0.966093973883     1.574023166747    -0.359831544999    12.000000000000
         C            2.235940653644     1.026208207308    -0.492029414843    12.000000000000
         C            2.402661068281    -0.369037318023    -0.452141474379    12.000000000000
         C            1.285490390705    -1.188209036645    -0.233643069962    12.000000000000
         C            0.012516838812    -0.636952350839    -0.118682856692    12.000000000000
         S            3.947656782038    -1.195173806920    -0.603452906238    31.972071174400
         C            5.125925240059     0.170227871907    -0.672827802055    12.000000000000
         O           -3.358681255890    -1.835801997393     0.146441780890    15.994914619570
         O           -1.806232766470     2.479921879276    -0.356540276490    15.994914619570
         H            3.078670632314     1.686980504747    -0.664031377417     1.007825032230
         H            0.820134140470     2.651536317192    -0.393333343872     1.007825032230
         H           -0.979252307753    -2.477721674037    -0.159571669629     1.007825032230
         H            1.409589372453    -2.270637985816    -0.198005378341     1.007825032230
         H            4.999830475795     0.775197366197    -1.572771830540     1.007825032230
         H            5.068017769485     0.795712197720     0.219743201791     1.007825032230
         H            6.113062989299    -0.294882351719    -0.706051331098     1.007825032230

  Basis Set: AUG-CC-PVDZ
    Blend: AUG-CC-PVDZ
  Basis Set: (AUG-CC-PVDZ AUX)
    Blend: AUG-CC-PVDZ-JKFIT
	 Reference Energy          =   -1183.4425310924088990 [Eh]
	 Singles Energy            =      -0.0000000000000000 [Eh]
	 Same-Spin Energy          =      -0.6739258403276003 [Eh]
	 Opposite-Spin Energy      =      -1.7743527925085476 [Eh]
	 Correlation Energy        =      -2.4482786328361481 [Eh]
	 Total Energy              =   -1185.8908097252449352 [Eh]

	 ================> DF-SCS-MP2 Energies <==================
	-----------------------------------------------------------
	 SCS Same-Spin Scale       =       0.3333333333333333 [-]
	 SCS Opposite-Spin Scale   =       1.2000000000000000 [-]
	 SCS Same-Spin Energy      =      -0.2246419467758667 [Eh]
	 SCS Opposite-Spin Energy  =      -2.1292233510102569 [Eh]
	 SCS Correlation Energy    =      -2.3538652977861236 [Eh]
	 SCS Total Energy          =   -1185.7963963901950137 [Eh]
	-----------------------------------------------------------

  Dipole Moment: [D]
     X:     7.3830      Y:    -0.9524      Z:    -1.2137     Total:     7.5425

  Basis Set: AUG-CC-PVDZ
    Blend: AUG-CC-PVDZ

  Mulliken Charges: (a.u.)
   Center  Symbol    Alpha    Beta     Spin     Total
       1     N     3.64894  3.64894  0.00000 -0.29789
       2     C     2.86164  2.86164  0.00000  0.27671
       3     C     2.12145  2.12145  0.00000  1.75710
       4     F     4.81521  4.81521  0.00000 -0.63041
       5     F     4.79932  4.79932  0.00000 -0.59863
       6     C     3.17419  3.17419  0.00000 -0.34837
       7     C     2.30153  2.30153  0.00000  1.39694
       8     C     2.68667  2.68667  0.00000  0.62665
       9     C     2.75210  2.75210  0.00000  0.49580
      10     C     2.80968  2.80968  0.00000  0.38064
      11     C     2.63075  2.63075  0.00000  0.73850
      12     C     3.18248  3.18248  0.00000 -0.36495
      13     S     7.91346  7.91346  0.00000  0.17308
      14     C     2.87935  2.87935  0.00000  0.24130
      15     O     4.29993  4.29993  0.00000 -0.59986
      16     O     4.29716  4.29716  0.00000 -0.59432
      17     H     0.90832  0.90832  0.00000 -0.81665
      18     H     0.85794  0.85794  0.00000 -0.71587
      19     H     0.55264  0.55264  0.00000 -0.10529
      20     H     0.86314  0.86314  0.00000 -0.72627
      21     H     0.50308  0.50308  0.00000 -0.00616
      22     H     0.50677  0.50677  0.00000 -0.01354
      23     H     0.63426  0.63426  0.00000 -0.26852

   Total alpha = 62.00000, Total beta = 62.00000, Total charge = -0.00000

*** Psi4 exiting successfully. Buy a developer a beer!
