                               Psi4 1.3.2 release

  ==> Input File <==

--------------------------------------------------------------------------
molecule {
0 1
 N   -1.783000   -1.701600    0.027600
 C   -3.135300   -1.276000    0.048000
 C   -3.413600    0.113200    0.495300
 F   -4.666000    0.539900    0.109600
 F   -3.283700    0.226000    1.872500
 C   -2.357000    0.984100   -0.102200
 C   -0.969800    0.536700   -0.122600
 C    0.089000    1.424400   -0.206100
 C    1.402700    1.009500   -0.225900
 C    1.658300   -0.344500   -0.159400
 C    0.622200   -1.252900   -0.075500
 C   -0.678600   -0.807300   -0.057800
 S    3.317800   -1.005200   -0.176900
 C    4.465100    0.398100   -0.291900
 O   -4.050600   -2.066400   -0.305200
 O   -2.611600    2.104900   -0.597300
 H    2.259800    1.663600   -0.289900
 H   -0.129700    2.466400   -0.256500
 H   -1.550700   -2.733300    0.077000
 H    0.809700   -2.326100   -0.022300
 H    4.185400    0.985700   -1.213900
 H    4.298800    1.013200    0.629200
 H    5.520800    0.047500   -0.348200
}
set {
  geom_maxiter 400
  g_convergence GAU_LOOSE
  dynamic_level 1
}
memory 16GB
set_num_threads(8)
psi4_io.set_default_path("/scratch/Psi4-ligand")
for _ in range(1):
  try:
    set opt_coordinates both
    optimize('mp2/6-31+g*')
    break
  except OptimizationConvergenceError:
    break
  else:
    try:
      set opt_coordinates cartesian
      optimize('mp2/6-31+g*')
      break
    except OptimizationConvergenceError:
      pass
clean()
--------------------------------------------------------------------------

    Molecular point group: c1
  Charge       = 0
  Multiplicity = 1
  Basis Set: 6-31+G*
    Blend: 6-31+G*
  Basis Set: (6-31+G* AUX)
    Blend: HEAVY-AUG-CC-PVDZ-JKFIT
  @DF-RHF Final Energy: -1183.30276937068970
    Total Energy =                      -1183.3027693706897026
  Basis Set: (6-31+G* AUX)
    Blend: HEAVY-AUG-CC-PVDZ-RI
    Molecular point group: c1
  Basis Set: 6-31+G*
    Blend: 6-31+G*
  Basis Set: (6-31+G* AUX)
    Blend: HEAVY-AUG-CC-PVDZ-JKFIT
  Basis Set: (6-31+G* AUX)
    Blend: HEAVY-AUG-CC-PVDZ-JKFIT
	 Reference Energy          =   -1183.3027693706897026 [Eh]
	 Singles Energy            =      -0.0000000000000000 [Eh]
	 Same-Spin Energy          =      -0.6526759885548497 [Eh]
	 Opposite-Spin Energy      =      -1.7181482635028376 [Eh]
	 Correlation Energy        =      -2.3708242520576874 [Eh]
	 Total Energy              =   -1185.6735936227473758 [Eh]
	 SCS Total Energy          =   -1185.5821059497448005 [Eh]
  @DF-RHF Final Energy: -1183.33745703473232
    Total Energy =                      -1183.3374570347323242
  @DF-RHF Final Energy: -1183.34387650088775
    Total Energy =                      -1183.3438765008877454
  @DF-RHF Final Energy: -1183.34347128826926
    Total Energy =                      -1183.3434712882692565
  @DF-RHF Final Energy: -1183.34306545026038
    Total Energy =                      -1183.3430654502603829
  @DF-RHF Final Energy: -1183.34387644570074
    Total Energy =                      -1183.3438764457007437
  @DF-RHF Final Energy: -1183.34389089831029
    Total Energy =                      -1183.3438908983102920
  @DF-RHF Final Energy: -1183.34387645576862
    Total Energy =                      -1183.3438764557686227
  @DF-RHF Final Energy: -1183.34375915475448
    Total Energy =                      -1183.3437591547544798
  @DF-RHF Final Energy: -1183.34379508282927
    Total Energy =                      -1183.3437950828292742
  @DF-RHF Final Energy: -1183.34309695866114
    Total Energy =                      -1183.3430969586611354
  @DF-RHF Final Energy: -1183.34352911076871
    Total Energy =                      -1183.3435291107687135
  @DF-RHF Final Energy: -1183.34365931777074
    Total Energy =                      -1183.3436593177707437
  @DF-RHF Final Energy: -1183.34351339776049
    Total Energy =                      -1183.3435133977604892
  @DF-RHF Final Energy: -1183.34350703631799
    Total Energy =                      -1183.3435070363179875
  @DF-RHF Final Energy: -1183.34315374270250
    Total Energy =                      -1183.3431537427024978
  @DF-RHF Final Energy: -1183.34327744870734
    Total Energy =                      -1183.3432774487073402
  Charge       = 0
  Multiplicity = 1
  Basis Set: 6-31+G*
    Blend: 6-31+G*
  Basis Set: (6-31+G* AUX)
    Blend: HEAVY-AUG-CC-PVDZ-JKFIT

    Orbital Energies [Eh]
    ---------------------

    Doubly Occupied:

       1A    -91.985856     2A    -26.354876     3A    -26.350038
       4A    -20.603544     5A    -20.592160     6A    -15.658942
       7A    -11.461173     8A    -11.415578     9A    -11.384424
      10A    -11.352768    11A    -11.328991    12A    -11.295612
      13A    -11.288498    14A    -11.281780    15A    -11.280662
      16A    -11.274790    17A     -8.994915    18A     -6.677987
      19A     -6.676308    20A     -6.674481    21A     -1.687589
      22A     -1.626391    23A     -1.431972    24A     -1.419040
      25A     -1.314021    26A     -1.200483    27A     -1.122601
      28A     -1.083002    29A     -1.058580    30A     -1.035795
      31A     -0.940290    32A     -0.904597    33A     -0.883290
      34A     -0.872558    35A     -0.815996    36A     -0.797821
      37A     -0.786539    38A     -0.749634    39A     -0.740007
      40A     -0.698382    41A     -0.694376    42A     -0.686963
      43A     -0.674628    44A     -0.659605    45A     -0.654559
      46A     -0.644181    47A     -0.643676    48A     -0.632360
      49A     -0.624894    50A     -0.607159    51A     -0.596223
      52A     -0.574447    53A     -0.554803    54A     -0.548917
      55A     -0.541426    56A     -0.488891    57A     -0.486457
      58A     -0.481695    59A     -0.454765    60A     -0.427879
      61A     -0.357689    62A     -0.336422

  @DF-RHF Final Energy: -1183.34350703494079

   => Energetics <=

    Nuclear Repulsion Energy =           1192.1922886930296954
    One-Electron Energy =               -3996.1236153645863851
    Two-Electron Energy =                1620.5878196366159045
    Total Energy =                      -1183.3435070349407852

  Dipole Moment: [D]
     X:     8.1087      Y:    -0.9726      Z:    -1.3267     Total:     8.2738

  Basis Set: (6-31+G* AUX)
    Blend: HEAVY-AUG-CC-PVDZ-RI
    Molecular point group: c1
  Basis Set: 6-31+G*
    Blend: 6-31+G*
  Basis Set: (6-31+G* AUX)
    Blend: HEAVY-AUG-CC-PVDZ-JKFIT
  Basis Set: (6-31+G* AUX)
    Blend: HEAVY-AUG-CC-PVDZ-JKFIT
	 Reference Energy          =   -1183.3435070349407852 [Eh]
	 Singles Energy            =      -0.0000000000000000 [Eh]
	 Same-Spin Energy          =      -0.6501640702757520 [Eh]
	 Opposite-Spin Energy      =      -1.7107030139728596 [Eh]
	 Correlation Energy        =      -2.3608670842486115 [Eh]
	 Total Energy              =   -1185.7043741191894242 [Eh]

	 ================> DF-SCS-MP2 Energies <==================
	-----------------------------------------------------------
	 SCS Same-Spin Scale       =       0.3333333333333333 [-]
	 SCS Opposite-Spin Scale   =       1.2000000000000000 [-]
	 SCS Same-Spin Energy      =      -0.2167213567585840 [Eh]
	 SCS Opposite-Spin Energy  =      -2.0528436167674315 [Eh]
	 SCS Correlation Energy    =      -2.2695649735260157 [Eh]
	 SCS Total Energy          =   -1185.6130720084668155 [Eh]
	-----------------------------------------------------------

  -Total Gradient:
     Atom            X                  Y                   Z
    ------   -----------------  -----------------  -----------------
       1       -0.000177626854    -0.001057416596     0.000014056032
       2        0.000051588473    -0.000115894452     0.000331699590
       3        0.000174714490     0.000428383521    -0.000193644759
       4        0.000216908089    -0.000189983065    -0.000019173965
       5       -0.000065330536    -0.000024010553     0.000519042389
       6       -0.000069748473    -0.000283163789    -0.000454275337
       7        0.000265676160     0.000382812528     0.000528567769
       8       -0.000057003240    -0.000105406730    -0.000428256054
       9        0.000108345338    -0.000000194126     0.000550712698
      10       -0.000049900679    -0.000043571830    -0.000410123044
      11        0.000046519142     0.000282505964     0.000309989042
      12       -0.000134497397    -0.000243074999    -0.000634344646
      13       -0.000486197149    -0.000398465837     0.000338722950
      14        0.000469617934     0.000377995758     0.000004488844
      15       -0.000080295877    -0.000490056051    -0.000228840565
      16        0.000033536703     0.000617651285    -0.000070523357
      17       -0.000033867284     0.000072971896    -0.000174406235
      18        0.000042382915    -0.000023988334     0.000174870842
      19       -0.000164471685     0.000880116483     0.000156840145
      20       -0.000042912245    -0.000130411001    -0.000158142419
      21        0.000112765312    -0.000087198175     0.000036723120
      22        0.000217617630    -0.000227105477    -0.000266497537
      23       -0.000377820713     0.000377503581     0.000072514495

  **** Optimization is complete! (in 1 steps) ****
    Final optimized geometry and variables:
    Molecular point group: c1

    Geometry (in Angstrom), charge = 0, multiplicity = 1:

    N           -1.094217774737    -1.487434346328     0.044734188051
    C           -2.393766284091    -1.084690393087     0.219102553115
    C           -2.518912794393     0.393910866200     0.614721591325
    F           -3.779308569811     0.822437947023     0.411828787957
    F           -2.254065690124     0.443890224611     1.981068929562
    C           -1.494493955435     1.336972633504    -0.035019415147
    C           -0.148626848319     0.761464461058    -0.130673473182
    C            0.966093973883     1.574023166747    -0.359831544999
    C            2.235940653644     1.026208207308    -0.492029414843
    C            2.402661068281    -0.369037318023    -0.452141474379
    C            1.285490390705    -1.188209036645    -0.233643069962
    C            0.012516838812    -0.636952350839    -0.118682856692
    S            3.947656782038    -1.195173806920    -0.603452906238
    C            5.125925240059     0.170227871907    -0.672827802055
    O           -3.358681255890    -1.835801997393     0.146441780890
    O           -1.806232766470     2.479921879276    -0.356540276490
    H            3.078670632314     1.686980504747    -0.664031377417
    H            0.820134140470     2.651536317192    -0.393333343872
    H           -0.979252307753    -2.477721674037    -0.159571669629
    H            1.409589372453    -2.270637985816    -0.198005378341
    H            4.999830475795     0.775197366197    -1.572771830540
    H            5.068017769485     0.795712197720     0.219743201791
    H            6.113062989299    -0.294882351719    -0.706051331098

*** Psi4 exiting successfully. Buy a developer a beer!
