                               Psi4 1.3.2 release

  ==> Input File <==

--------------------------------------------------------------------------
molecule {
0 1
N -1.094217774737 -1.487434346328 0.044734188051
C -2.393766284091 -1.084690393087 0.219102553115
C -2.518912794393 0.393910866200 0.614721591325
F -3.779308569811 0.822437947023 0.411828787957
F -2.254065690124 0.443890224611 1.981068929562
C -1.494493955435 1.336972633504 -0.035019415147
C -0.148626848319 0.761464461058 -0.130673473182
C 0.966093973883 1.574023166747 -0.359831544999
C 2.235940653644 1.026208207308 -0.492029414843
C 2.402661068281 -0.369037318023 -0.452141474379
C 1.285490390705 -1.188209036645 -0.233643069962
C 0.012516838812 -0.636952350839 -0.118682856692
S 3.947656782038 -1.195173806920 -0.603452906238
C 5.125925240059 0.170227871907 -0.672827802055
O -3.358681255890 -1.835801997393 0.146441780890
O -1.806232766470 2.479921879276 -0.356540276490
H 3.078670632314 1.686980504747 -0.664031377417
H 0.820134140470 2.651536317192 -0.393333343872
H -0.979252307753 -2.477721674037 -0.159571669629
H 1.409589372453 -2.270637985816 -0.198005378341
H 4.999830475795 0.775197366197 -1.572771830540
H 5.068017769485 0.795712197720 0.219743201791
H 6.113062989299 -0.294882351719 -0.706051331098
}
memory 16GB
set_num_threads(8)
psi4_io.set_default_path("/scratch/Psi4-ligand")
set freeze_core True
set PROPERTIES_ORIGIN ["COM"]
set cubeprop_tasks ['esp']
E, wfn = energy('mp2/6-311G**',properties=['dipole'],return_wfn=True)
cubeprop(wfn)
fchk(wfn, "ligand-dma.fchk")
clean()
--------------------------------------------------------------------------

    Molecular point group: c1

    Geometry (in Angstrom), charge = 0, multiplicity = 1:

       Center              X                  Y                   Z               Mass
    ------------   -----------------  -----------------  -----------------  -----------------
         N           -1.094217774737    -1.487434346328     0.044734188051    14.003074004430
         C           -2.393766284091    -1.084690393087     0.219102553115    12.000000000000
         C           -2.518912794393     0.393910866200     0.614721591325    12.000000000000
         F           -3.779308569811     0.822437947023     0.411828787957    18.998403162730
         F           -2.254065690124     0.443890224611     1.981068929562    18.998403162730
         C           -1.494493955435     1.336972633504    -0.035019415147    12.000000000000
         C           -0.148626848319     0.761464461058    -0.130673473182    12.000000000000
         C            0.966093973883     1.574023166747    -0.359831544999    12.000000000000
         C            2.235940653644     1.026208207308    -0.492029414843    12.000000000000
         C            2.402661068281    -0.369037318023    -0.452141474379    12.000000000000
         C            1.285490390705    -1.188209036645    -0.233643069962    12.000000000000
         C            0.012516838812    -0.636952350839    -0.118682856692    12.000000000000
         S            3.947656782038    -1.195173806920    -0.603452906238    31.972071174400
         C            5.125925240059     0.170227871907    -0.672827802055    12.000000000000
         O           -3.358681255890    -1.835801997393     0.146441780890    15.994914619570
         O           -1.806232766470     2.479921879276    -0.356540276490    15.994914619570
         H            3.078670632314     1.686980504747    -0.664031377417     1.007825032230
         H            0.820134140470     2.651536317192    -0.393333343872     1.007825032230
         H           -0.979252307753    -2.477721674037    -0.159571669629     1.007825032230
         H            1.409589372453    -2.270637985816    -0.198005378341     1.007825032230
         H            4.999830475795     0.775197366197    -1.572771830540     1.007825032230
         H            5.068017769485     0.795712197720     0.219743201791     1.007825032230
         H            6.113062989299    -0.294882351719    -0.706051331098     1.007825032230

  Charge       = 0
  Multiplicity = 1
  Basis Set: 6-311G**
    Blend: 6-311G**
  Basis Set: (6-311G** AUX)
    Blend: CC-PVTZ-JKFIT

    Orbital Energies [Eh]
    ---------------------

    Doubly Occupied:

       1A    -91.991375     2A    -26.330111     3A    -26.327913
       4A    -20.581800     5A    -20.569433     6A    -15.645166
       7A    -11.452083     8A    -11.406228     9A    -11.375951
      10A    -11.346863    11A    -11.323442    12A    -11.289269
      13A    -11.286493    14A    -11.275039    15A    -11.273239
      16A    -11.267460    17A     -8.994114    18A     -6.676536
      19A     -6.675105    20A     -6.673614    21A     -1.679891
      22A     -1.618119    23A     -1.425280    24A     -1.412917
      25A     -1.308809    26A     -1.196732    27A     -1.119014
      28A     -1.078460    29A     -1.054680    30A     -1.032044
      31A     -0.937015    32A     -0.899959    33A     -0.879310
      34A     -0.869360    35A     -0.811790    36A     -0.793436
      37A     -0.780942    38A     -0.745178    39A     -0.736482
      40A     -0.694282    41A     -0.689698    42A     -0.683303
      43A     -0.670356    44A     -0.654544    45A     -0.650896
      46A     -0.640702    47A     -0.639280    48A     -0.628999
      49A     -0.622379    50A     -0.602975    51A     -0.593338
      52A     -0.570721    53A     -0.551513    54A     -0.546223
      55A     -0.538012    56A     -0.485751    57A     -0.483047
      58A     -0.479627    59A     -0.450619    60A     -0.426045
      61A     -0.355899    62A     -0.334424

  @DF-RHF Final Energy: -1183.52878675637930

   => Energetics <=

    Nuclear Repulsion Energy =           1192.1922886930151435
    One-Electron Energy =               -3997.1755750892343713
    Two-Electron Energy =                1621.4544996398399235
    Total Energy =                      -1183.5287867563793043

  Dipole Moment: [D]
     X:     7.8983      Y:    -0.9660      Z:    -1.3499     Total:     8.0708

  Basis Set: (6-311G** AUX)
    Blend: CC-PVTZ-RI
	 Reference Energy          =   -1183.5287867563793043 [Eh]
	 Singles Energy            =      -0.0000000000000000 [Eh]
	 Same-Spin Energy          =      -0.6711032447988980 [Eh]
	 Opposite-Spin Energy      =      -1.7906087083776578 [Eh]
	 Correlation Energy        =      -2.4617119531765557 [Eh]
	 Total Energy              =   -1185.9904987095558226 [Eh]

	 ================> DF-SCS-MP2 Energies <==================
	-----------------------------------------------------------
	 SCS Same-Spin Scale       =       0.3333333333333333 [-]
	 SCS Opposite-Spin Scale   =       1.2000000000000000 [-]
	 SCS Same-Spin Energy      =      -0.2237010815996327 [Eh]
	 SCS Opposite-Spin Energy  =      -2.1487304500531894 [Eh]
	 SCS Correlation Energy    =      -2.3724315316528219 [Eh]
	 SCS Total Energy          =   -1185.9012182880321689 [Eh]
	-----------------------------------------------------------

  Basis Set: 6-311G**
    Blend: 6-311G**
*** Psi4 exiting successfully. Buy a developer a beer!
