                               Psi4 1.3.2 release

  ==> Input File <==

--------------------------------------------------------------------------
molecule {
0 1
  N                 -0.8910240    -1.4030780    -0.0050850
  C                 -2.1808660    -1.1218050     0.3703250
  C                 -2.4689910     0.3847960     0.6739010
  F                 -3.7849310     0.6704210     0.3591430
  F                 -2.3291420     0.5634900     2.0316330
  C                 -1.5277770     1.4100670    -0.0475910
  C                 -0.1824620     0.9149700    -0.4256940
  C                  0.7873200     1.8015830    -0.9424290
  C                  2.0693580     1.3486090    -1.2791370
  C                  2.4018320    -0.0232130    -1.1337320
  C                  1.4130960    -0.9230310    -0.6803090
  C                  0.1246030    -0.4738350    -0.3445350
  S                  3.9885200    -0.7054780    -1.5137690
  C                  4.9737920    -0.3323170    -0.0410660
  O                 -3.0031200    -2.0217960     0.5026800
  O                 -1.8575620     2.5856590    -0.1852130
  H                  2.7984520     2.0707080    -1.6457550
  H                  0.5177650     2.8518550    -1.0566600
  H                 -0.7268170    -2.3929600    -0.1238800
  H                  1.6556850    -1.9812730    -0.5767180
  H                  5.1536430     0.7460270     0.0098090
  H                  4.4330830    -0.6596020     0.8528180
  H                  5.9285950    -0.8622630    -0.1078720
--
0 1
  O                 -2.7141052    -0.6040602    -1.6915070
  H                 -3.2811452    -1.3694932    -1.5688470
  H                 -3.2484522     0.0916488    -2.0788250
}
memory 16GB
set_num_threads(8)
psi4_io.set_default_path("/scratch/Psi4-ligand")
set maxiter 500
set freeze_core True
set PROPERTIES_ORIGIN ["COM"]
e_dim= energy('wb97x-d/aug-cc-pVDZ',bsse_type='cp')

psi4.print_out('CP Energy = %10.6f' % (e_dim))
clean()
--------------------------------------------------------------------------

    Molecular point group: c1
  Charge       = 0
  Multiplicity = 1
  Basis Set: AUG-CC-PVDZ
    Blend: AUG-CC-PVDZ
  Basis Set: (AUG-CC-PVDZ AUX)
    Blend: AUG-CC-PVDZ-JKFIT
  @DF-RKS Final Energy:   -76.41957322382295
    Total Energy =                        -76.4195732238229368
    Molecular point group: c1
  Basis Set: AUG-CC-PVDZ
    Blend: AUG-CC-PVDZ
  Basis Set: (AUG-CC-PVDZ AUX)
    Blend: AUG-CC-PVDZ-JKFIT
  @DF-RKS Final Energy:   -76.42050226942105
    Total Energy =                        -76.4205022694210498
  Basis Set: AUG-CC-PVDZ
    Blend: AUG-CC-PVDZ
  Basis Set: (AUG-CC-PVDZ AUX)
    Blend: AUG-CC-PVDZ-JKFIT
  @DF-RKS Final Energy: -1188.20583920764057
    Total Energy =                      -1188.2058392076405653
  Multiplicity = 1
  Basis Set: AUG-CC-PVDZ
    Blend: AUG-CC-PVDZ
  Basis Set: (AUG-CC-PVDZ AUX)
    Blend: AUG-CC-PVDZ-JKFIT
  @DF-RKS Final Energy: -1188.20489218478860
    Total Energy =                      -1188.2048921847886049
    Molecular point group: c1

    Geometry (in Angstrom), charge = 0, multiplicity = 1:

       Center              X                  Y                   Z               Mass
    ------------   -----------------  -----------------  -----------------  -----------------
         N           -0.722388925518    -1.460195230189     0.292105045487    14.003074004430
         C           -2.012230925518    -1.178922230189     0.667515045487    12.000000000000
         C           -2.300355925518     0.327678769811     0.971091045487    12.000000000000
         F           -3.616295925518     0.613303769811     0.656333045487    18.998403162730
         F           -2.160506925518     0.506372769811     2.328823045487    18.998403162730
         C           -1.359141925518     1.352949769811     0.249599045487    12.000000000000
         C           -0.013826925518     0.857852769811    -0.128503954513    12.000000000000
         C            0.955955074482     1.744465769811    -0.645238954513    12.000000000000
         C            2.237993074482     1.291491769811    -0.981946954513    12.000000000000
         C            2.570467074482    -0.080330230189    -0.836541954513    12.000000000000
         C            1.581731074482    -0.980148230189    -0.383118954513    12.000000000000
         C            0.293238074482    -0.530952230189    -0.047344954513    12.000000000000
         S            4.157155074482    -0.762595230189    -1.216578954513    31.972071174400
         C            5.142427074482    -0.389434230189     0.256124045487    12.000000000000
         O           -2.834484925518    -2.078913230189     0.799870045487    15.994914619570
         O           -1.688926925518     2.528541769811     0.111977045487    15.994914619570
         H            2.967087074482     2.013590769811    -1.348564954513     1.007825032230
         H            0.686400074482     2.794737769811    -0.759469954513     1.007825032230
         H           -0.558181925518    -2.450077230189     0.173310045487     1.007825032230
         H            1.824320074482    -2.038390230189    -0.279527954513     1.007825032230
         H            5.322278074482     0.688909769811     0.306999045487     1.007825032230
         H            4.601718074482    -0.716719230189     1.150008045487     1.007825032230
         H            6.097230074482    -0.919380230189     0.189318045487     1.007825032230
         O           -2.545470125518    -0.661177430189    -1.394316954513    15.994914619570
         H           -3.112510125518    -1.426610430189    -1.271656954513     1.007825032230
         H           -3.079817125518     0.034531569811    -1.781634954513     1.007825032230

  Charge       = 0
  Multiplicity = 1
  Basis Set: AUG-CC-PVDZ
    Blend: AUG-CC-PVDZ
  Basis Set: (AUG-CC-PVDZ AUX)
    Blend: AUG-CC-PVDZ-JKFIT

    Orbital Energies [Eh]
    ---------------------

    Doubly Occupied:

       1A    -89.063715     2A    -24.870928     3A    -24.861462
       4A    -19.303768     5A    -19.296171     6A    -19.273511
       7A    -14.520117     8A    -10.498621     9A    -10.450191
      10A    -10.428696    11A    -10.397195    12A    -10.370569
      13A    -10.347170    14A    -10.343595    15A    -10.340911
      16A    -10.340237    17A    -10.335665    18A     -8.081201
      19A     -6.031058    20A     -6.026946    21A     -6.019999
      22A     -1.377899    23A     -1.320168    24A     -1.185354
      25A     -1.173088    26A     -1.148902    27A     -1.080779
      28A     -0.991334    29A     -0.930210    30A     -0.895045
      31A     -0.879356    32A     -0.858740    33A     -0.784926
      34A     -0.756069    35A     -0.742244    36A     -0.732327
      37A     -0.687971    38A     -0.670721    39A     -0.667654
      40A     -0.661572    41A     -0.633663    42A     -0.620804
      43A     -0.582415    44A     -0.572573    45A     -0.568468
      46A     -0.555726    47A     -0.549464    48A     -0.548467
      49A     -0.541134    50A     -0.532858    51A     -0.528489
      52A     -0.521003    53A     -0.516227    54A     -0.507743
      55A     -0.495776    56A     -0.490761    57A     -0.487037
      58A     -0.475108    59A     -0.465732    60A     -0.438082
      61A     -0.422655    62A     -0.410201    63A     -0.389192
      64A     -0.363763    65A     -0.359762    66A     -0.330949
      67A     -0.325421

  @DF-RKS Final Energy: -1264.62256821387064

   => Energetics <=

    Nuclear Repulsion Energy =           1365.1938658705864782
    One-Electron Energy =               -4450.1076251836557276
    Two-Electron Energy =                1916.3625308158020744
    DFT Exchange-Correlation Energy =     -96.0542712954476769
    Empirical Dispersion Energy =          -0.0170684211559490
    VV10 Nonlocal Energy =                  0.0000000000000000
    Total Energy =                      -1264.6225682138706361

  Dipole Moment: [D]
     X:     4.1776      Y:    -1.1333      Z:    -1.6039     Total:     4.6161

*** Psi4 exiting successfully. Buy a developer a beer!
