                               Psi4 1.3.2 release

  ==> Input File <==

--------------------------------------------------------------------------
molecule {
0 1
  N                 -0.8664290    -1.2589580    -0.1536890
  C                 -2.1480460    -0.9706410     0.2378410
  C                 -2.4007690     0.5145350     0.6579700
  F                 -3.6850840     0.8694240     0.2915950
  F                 -2.3353680     0.5658950     2.0315300
  C                 -1.3937820     1.5693870     0.0855650
  C                 -0.0656290     1.0595950    -0.3300500
  C                  0.9465510     1.9559480    -0.7385460
  C                  2.2136610     1.4889290    -1.1106430
  C                  2.4907560     0.0971820    -1.1056990
  C                  1.4623780    -0.8043860    -0.7556460
  C                  0.1875990    -0.3407930    -0.3880530
  S                  4.0542370    -0.6049660    -1.5424950
  C                  5.0346590    -0.4289270    -0.0306500
  O                 -3.0063170    -1.8468130     0.2574760
  O                 -1.6655360     2.7669320     0.0871550
  H                  2.9744450     2.2152280    -1.3953660
  H                  0.7201870     3.0225720    -0.7441760
  H                 -0.7355770    -2.2367310    -0.3731030
  H                  1.6634470    -1.8765260    -0.7569760
  H                  5.2834860     0.6263530     0.1168130
  H                  4.4568290    -0.7941620     0.8239960
  H                  5.9530340    -1.0151490    -0.1306800
--
0 1
  O                 -3.2583752    -0.3413878    -2.8442754
  H                 -3.6536392    -1.0783818    -2.3709134
  H                 -3.9562832     0.2820242    -3.0509994
}
memory 16GB
set_num_threads(8)
psi4_io.set_default_path("/scratch/Psi4-ligand")
set maxiter 500
set freeze_core True
set PROPERTIES_ORIGIN ["COM"]
e_dim= energy('wb97x-d/aug-cc-pVDZ',bsse_type='cp')

psi4.print_out('CP Energy = %10.6f' % (e_dim))
clean()
--------------------------------------------------------------------------

    Molecular point group: c1
  Charge       = 0
  Multiplicity = 1
  Basis Set: AUG-CC-PVDZ
    Blend: AUG-CC-PVDZ
  Basis Set: (AUG-CC-PVDZ AUX)
    Blend: AUG-CC-PVDZ-JKFIT
  @DF-RKS Final Energy:   -76.41953281164666
    Total Energy =                        -76.4195328116466612
    Molecular point group: c1
  Basis Set: AUG-CC-PVDZ
    Blend: AUG-CC-PVDZ
  Basis Set: (AUG-CC-PVDZ AUX)
    Blend: AUG-CC-PVDZ-JKFIT
  @DF-RKS Final Energy:   -76.41976988004454
    Total Energy =                        -76.4197698800445266
  Basis Set: AUG-CC-PVDZ
    Blend: AUG-CC-PVDZ
  Basis Set: (AUG-CC-PVDZ AUX)
    Blend: AUG-CC-PVDZ-JKFIT
  @DF-RKS Final Energy: -1188.20515176052254
    Total Energy =                      -1188.2051517605225399
  Multiplicity = 1
  Basis Set: AUG-CC-PVDZ
    Blend: AUG-CC-PVDZ
  Basis Set: (AUG-CC-PVDZ AUX)
    Blend: AUG-CC-PVDZ-JKFIT
  @DF-RKS Final Energy: -1188.20494260343139
    Total Energy =                      -1188.2049426034313910
    Molecular point group: c1

    Geometry (in Angstrom), charge = 0, multiplicity = 1:

       Center              X                  Y                   Z               Mass
    ------------   -----------------  -----------------  -----------------  -----------------
         N           -0.732348204921    -1.444313122349     0.217892391928    14.003074004430
         C           -2.013965204921    -1.155996122349     0.609422391928    12.000000000000
         C           -2.266688204921     0.329179877651     1.029551391928    12.000000000000
         F           -3.551003204921     0.684068877651     0.663176391928    18.998403162730
         F           -2.201287204921     0.380539877651     2.403111391928    18.998403162730
         C           -1.259701204921     1.384031877651     0.457146391928    12.000000000000
         C            0.068451795079     0.874239877651     0.041531391928    12.000000000000
         C            1.080631795079     1.770592877651    -0.366964608072    12.000000000000
         C            2.347741795079     1.303573877651    -0.739061608072    12.000000000000
         C            2.624836795079    -0.088173122349    -0.734117608072    12.000000000000
         C            1.596458795079    -0.989741122349    -0.384064608072    12.000000000000
         C            0.321679795079    -0.526148122349    -0.016471608072    12.000000000000
         S            4.188317795079    -0.790321122349    -1.170913608072    31.972071174400
         C            5.168739795079    -0.614282122349     0.340931391928    12.000000000000
         O           -2.872236204921    -2.032168122349     0.629057391928    15.994914619570
         O           -1.531455204921     2.581576877651     0.458736391928    15.994914619570
         H            3.108525795079     2.029872877651    -1.023784608072     1.007825032230
         H            0.854267795079     2.837216877651    -0.372594608072     1.007825032230
         H           -0.601496204921    -2.422086122349    -0.001521608072     1.007825032230
         H            1.797527795079    -2.061881122349    -0.385394608072     1.007825032230
         H            5.417566795079     0.440997877651     0.488394391928     1.007825032230
         H            4.590909795079    -0.979517122349     1.195577391928     1.007825032230
         H            6.087114795079    -1.200504122349     0.240901391928     1.007825032230
         O           -3.124294404921    -0.526742922349    -2.472694008072    15.994914619570
         H           -3.519558404921    -1.263736922349    -1.999332008072     1.007825032230
         H           -3.822202404921     0.096669077651    -2.679418008072     1.007825032230

  Charge       = 0
  Multiplicity = 1
  Basis Set: AUG-CC-PVDZ
    Blend: AUG-CC-PVDZ
  Basis Set: (AUG-CC-PVDZ AUX)
    Blend: AUG-CC-PVDZ-JKFIT

    Orbital Energies [Eh]
    ---------------------

    Doubly Occupied:

       1A    -89.066677     2A    -24.878162     3A    -24.866167
       4A    -19.300620     5A    -19.287500     6A    -19.278508
       7A    -14.533604     8A    -10.506922     9A    -10.455093
      10A    -10.432848    11A    -10.403414    12A    -10.374991
      13A    -10.352402    14A    -10.348097    15A    -10.346123
      16A    -10.342819    17A    -10.340042    18A     -8.084171
      19A     -6.034043    20A     -6.029911    21A     -6.022952
      22A     -1.383828    23A     -1.325431    24A     -1.188447
      25A     -1.177252    26A     -1.119608    27A     -1.090686
      28A     -0.996451    29A     -0.934667    30A     -0.900765
      31A     -0.884754    32A     -0.863641    33A     -0.789347
      34A     -0.762509    35A     -0.748990    36A     -0.736978
      37A     -0.692822    38A     -0.675044    39A     -0.666824
      40A     -0.640463    41A     -0.631864    42A     -0.626007
      43A     -0.587586    44A     -0.576523    45A     -0.566759
      46A     -0.561056    47A     -0.554001    48A     -0.552115
      49A     -0.546619    50A     -0.537006    51A     -0.531030
      52A     -0.524764    53A     -0.514880    54A     -0.509331
      55A     -0.497929    56A     -0.491125    57A     -0.480332
      58A     -0.477432    59A     -0.470630    60A     -0.438216
      61A     -0.417311    62A     -0.407607    63A     -0.396517
      64A     -0.369550    65A     -0.364177    66A     -0.336843
      67A     -0.329177

  @DF-RKS Final Energy: -1264.63174073574942

   => Energetics <=

    Nuclear Repulsion Energy =           1326.2050317315588472
    One-Electron Energy =               -4371.8175420046800355
    Two-Electron Energy =                1877.0085218821582203
    DFT Exchange-Correlation Energy =     -96.0121822284187232
    Empirical Dispersion Energy =          -0.0155701163677723
    VV10 Nonlocal Energy =                  0.0000000000000000
    Total Energy =                      -1264.6317407357494176

  Dipole Moment: [D]
     X:     4.6831      Y:    -1.2742      Z:    -0.2700     Total:     4.8609

*** Psi4 exiting successfully. Buy a developer a beer!
