                               Psi4 1.3.2 release

  ==> Input File <==

--------------------------------------------------------------------------
molecule {
0 1
  N                 -0.7685550    -1.3927420     0.3453050
  C                 -2.0454150    -1.1492830     0.7782580
  C                 -2.5270200     0.3364600     0.6883900
  F                 -3.6014700     0.3707270    -0.1712770
  F                 -2.9637720     0.7084010     1.9405340
  C                 -1.4851110     1.4030980     0.2004280
  C                 -0.1517140     0.9179150    -0.2225990
  C                  0.8248890     1.8303570    -0.6770190
  C                  2.0740430     1.3877300    -1.1289330
  C                  2.4015320     0.0083160    -1.0705750
  C                  1.4441770    -0.9018200    -0.5728380
  C                  0.1767120    -0.4643990    -0.1514740
  S                  3.9507640    -0.6695320    -1.5931640
  C                  5.0717630    -0.3031620    -0.2197520
  O                 -2.7437950    -2.0628100     1.1926300
  O                 -1.7801450     2.5938830     0.1635240
  H                  2.7815910     2.1208260    -1.5142670
  H                  0.5666820     2.8897050    -0.7056400
  H                 -0.5187200    -2.3693380     0.4195400
  H                  1.6892370    -1.9636950    -0.5229130
  H                  5.4085280     0.7353380    -0.2958230
  H                  4.5520560    -0.4472920     0.7330920
  H                  5.9333610    -0.9753140    -0.2724440
--
0 1
  O                  3.0688186     1.4773236     1.4822288
  H                  2.5456326     1.6519436     0.6978278
  H                  2.7654686     2.0592526     2.1792478
}
memory 16GB
set_num_threads(8)
psi4_io.set_default_path("/scratch/Psi4-ligand")
set maxiter 500
set freeze_core True
set PROPERTIES_ORIGIN ["COM"]
e_dim= energy('wb97x-d/aug-cc-pVDZ',bsse_type='cp')

psi4.print_out('CP Energy = %10.6f' % (e_dim))
clean()
--------------------------------------------------------------------------

    Molecular point group: c1
  Charge       = 0
  Multiplicity = 1
  Basis Set: AUG-CC-PVDZ
    Blend: AUG-CC-PVDZ
  Basis Set: (AUG-CC-PVDZ AUX)
    Blend: AUG-CC-PVDZ-JKFIT
  @DF-RKS Final Energy:   -76.41947771563677
    Total Energy =                        -76.4194777156367735
    Molecular point group: c1
  Basis Set: AUG-CC-PVDZ
    Blend: AUG-CC-PVDZ
  Basis Set: (AUG-CC-PVDZ AUX)
    Blend: AUG-CC-PVDZ-JKFIT
  @DF-RKS Final Energy:   -76.42019480177761
    Total Energy =                        -76.4201948017776260
  Basis Set: AUG-CC-PVDZ
    Blend: AUG-CC-PVDZ
  Basis Set: (AUG-CC-PVDZ AUX)
    Blend: AUG-CC-PVDZ-JKFIT
  @DF-RKS Final Energy: -1188.20612841579828
    Total Energy =                      -1188.2061284157982755
  Multiplicity = 1
  Basis Set: AUG-CC-PVDZ
    Blend: AUG-CC-PVDZ
  Basis Set: (AUG-CC-PVDZ AUX)
    Blend: AUG-CC-PVDZ-JKFIT
  @DF-RKS Final Energy: -1188.20538806798390
    Total Energy =                      -1188.2053880679836766
    Molecular point group: c1

    Geometry (in Angstrom), charge = 0, multiplicity = 1:

       Center              X                  Y                   Z               Mass
    ------------   -----------------  -----------------  -----------------  -----------------
         N           -1.009448422181    -1.592835311160     0.325681740879    14.003074004430
         C           -2.286308422181    -1.349376311160     0.758634740879    12.000000000000
         C           -2.767913422181     0.136366688840     0.668766740879    12.000000000000
         F           -3.842363422181     0.170633688840    -0.190900259121    18.998403162730
         F           -3.204665422181     0.508307688840     1.920910740879    18.998403162730
         C           -1.726004422181     1.203004688840     0.180804740879    12.000000000000
         C           -0.392607422181     0.717821688840    -0.242222259121    12.000000000000
         C            0.583995577819     1.630263688840    -0.696642259121    12.000000000000
         C            1.833149577819     1.187636688840    -1.148556259121    12.000000000000
         C            2.160638577819    -0.191777311160    -1.090198259121    12.000000000000
         C            1.203283577819    -1.101913311160    -0.592461259121    12.000000000000
         C           -0.064181422181    -0.664492311160    -0.171097259121    12.000000000000
         S            3.709870577819    -0.869625311160    -1.612787259121    31.972071174400
         C            4.830869577819    -0.503255311160    -0.239375259121    12.000000000000
         O           -2.984688422181    -2.262903311160     1.173006740879    15.994914619570
         O           -2.021038422181     2.393789688840     0.143900740879    15.994914619570
         H            2.540697577819     1.920732688840    -1.533890259121     1.007825032230
         H            0.325788577819     2.689611688840    -0.725263259121     1.007825032230
         H           -0.759613422181    -2.569431311160     0.399916740879     1.007825032230
         H            1.448343577819    -2.163788311160    -0.542536259121     1.007825032230
         H            5.167634577819     0.535244688840    -0.315446259121     1.007825032230
         H            4.311162577819    -0.647385311160     0.713468740879     1.007825032230
         H            5.692467577819    -1.175407311160    -0.292067259121     1.007825032230
         O            2.827925177819     1.277230288840     1.462605540879    15.994914619570
         H            2.304739177819     1.451850288840     0.678204540879     1.007825032230
         H            2.524575177819     1.859159288840     2.159624540879     1.007825032230

  Charge       = 0
  Multiplicity = 1
  Basis Set: AUG-CC-PVDZ
    Blend: AUG-CC-PVDZ
  Basis Set: (AUG-CC-PVDZ AUX)
    Blend: AUG-CC-PVDZ-JKFIT

    Orbital Energies [Eh]
    ---------------------

    Doubly Occupied:

       1A    -89.067298     2A    -24.878340     3A    -24.876485
       4A    -19.307518     5A    -19.290968     6A    -19.277223
       7A    -14.540565     8A    -10.512884     9A    -10.458561
      10A    -10.439989    11A    -10.413295    12A    -10.383594
      13A    -10.361291    14A    -10.359638    15A    -10.353708
      16A    -10.348608    17A    -10.334138    18A     -8.084751
      19A     -6.034665    20A     -6.030427    21A     -6.023577
      22A     -1.388696    23A     -1.332731    24A     -1.194481
      25A     -1.185269    26A     -1.124691    27A     -1.098170
      28A     -1.006455    29A     -0.939847    30A     -0.905308
      31A     -0.895242    32A     -0.866862    33A     -0.793371
      34A     -0.770718    35A     -0.756578    36A     -0.740790
      37A     -0.700362    38A     -0.683086    39A     -0.672758
      40A     -0.647475    41A     -0.643810    42A     -0.633042
      43A     -0.595190    44A     -0.583538    45A     -0.570813
      46A     -0.566609    47A     -0.561815    48A     -0.557965
      49A     -0.554071    50A     -0.538721    51A     -0.527419
      52A     -0.522560    53A     -0.521803    54A     -0.515392
      55A     -0.503702    56A     -0.498802    57A     -0.487512
      58A     -0.479677    59A     -0.476192    60A     -0.440475
      61A     -0.421159    62A     -0.411755    63A     -0.401417
      64A     -0.375386    65A     -0.371441    66A     -0.345204
      67A     -0.329626

  @DF-RKS Final Energy: -1264.62498562950373

   => Energetics <=

    Nuclear Repulsion Energy =           1341.8790739259579823
    One-Electron Energy =               -4402.4173368952706369
    Two-Electron Energy =                1891.9749841085049411
    DFT Exchange-Correlation Energy =     -96.0444158269833395
    Empirical Dispersion Energy =          -0.0172909417126116
    VV10 Nonlocal Energy =                  0.0000000000000000
    Total Energy =                      -1264.6249856295037262

  Dipole Moment: [D]
     X:     5.1947      Y:    -0.1917      Z:    -0.7019     Total:     5.2454

*** Psi4 exiting successfully. Buy a developer a beer!
