                               Psi4 1.3.2 release

  ==> Input File <==

--------------------------------------------------------------------------
molecule {
0 1
  N                 -0.9782100    -1.3675700    -0.0527530
  C                 -2.2531490    -1.0840870     0.3652430
  C                 -2.5284270     0.4178140     0.7045670
  F                 -3.8206750     0.7286450     0.3229830
  F                 -2.4611000     0.5483650     2.0729670
  C                 -1.5431250     1.4604730     0.0715130
  C                 -0.2162180     0.9523050    -0.3492600
  C                  0.7709500     1.8438230    -0.8220770
  C                  2.0352310     1.3795420    -1.2057160
  C                  2.3341780    -0.0063160    -1.1452420
  C                  1.3275290    -0.9066280    -0.7343480
  C                  0.0540120    -0.4457660    -0.3585310
  S                  3.9004990    -0.7023180    -1.5798170
  C                  4.9455830    -0.3095440    -0.1541970
  O                 -3.0799340    -1.9783730     0.4939980
  O                 -1.8353400     2.6535240     0.0187490
  H                  2.7770320     2.1038670    -1.5404780
  H                  0.5276530     2.9054730    -0.8695930
  H                 -0.8317790    -2.3551090    -0.2096690
  H                  1.5449830    -1.9747330    -0.6936250
  H                  5.1390170     0.7673160    -0.1339530
  H                  4.4353630    -0.6104790     0.7663910
  H                  5.8915050    -0.8515650    -0.2448350
--
0 1
  O                 -2.8736234     0.1742637    -2.4893507
  H                 -3.5205354    -0.5340553    -2.5135277
  H                 -3.3337154     0.9938787    -2.6811317
}
memory 16GB
set_num_threads(8)
psi4_io.set_default_path("/scratch/Psi4-ligand")
set maxiter 500
set freeze_core True
set PROPERTIES_ORIGIN ["COM"]
e_dim= energy('wb97x-d/aug-cc-pVDZ',bsse_type='cp')

psi4.print_out('CP Energy = %10.6f' % (e_dim))
clean()
--------------------------------------------------------------------------

    Molecular point group: c1
  Charge       = 0
  Multiplicity = 1
  Basis Set: AUG-CC-PVDZ
    Blend: AUG-CC-PVDZ
  Basis Set: (AUG-CC-PVDZ AUX)
    Blend: AUG-CC-PVDZ-JKFIT
  @DF-RKS Final Energy:   -76.41956309444323
    Total Energy =                        -76.4195630944432338
    Molecular point group: c1
  Basis Set: AUG-CC-PVDZ
    Blend: AUG-CC-PVDZ
  Basis Set: (AUG-CC-PVDZ AUX)
    Blend: AUG-CC-PVDZ-JKFIT
  @DF-RKS Final Energy:   -76.41992210361018
    Total Energy =                        -76.4199221036101761
  Basis Set: AUG-CC-PVDZ
    Blend: AUG-CC-PVDZ
  Basis Set: (AUG-CC-PVDZ AUX)
    Blend: AUG-CC-PVDZ-JKFIT
  @DF-RKS Final Energy: -1188.20569827539293
    Total Energy =                      -1188.2056982753929333
  Multiplicity = 1
  Basis Set: AUG-CC-PVDZ
    Blend: AUG-CC-PVDZ
  Basis Set: (AUG-CC-PVDZ AUX)
    Blend: AUG-CC-PVDZ-JKFIT
  @DF-RKS Final Energy: -1188.20528073424612
    Total Energy =                      -1188.2052807342463439
    Molecular point group: c1

    Geometry (in Angstrom), charge = 0, multiplicity = 1:

       Center              X                  Y                   Z               Mass
    ------------   -----------------  -----------------  -----------------  -----------------
         N           -0.744248714596    -1.506675031284     0.288459241955    14.003074004430
         C           -2.019187714596    -1.223192031284     0.706455241955    12.000000000000
         C           -2.294465714596     0.278708968716     1.045779241955    12.000000000000
         F           -3.586713714596     0.589539968716     0.664195241955    18.998403162730
         F           -2.227138714596     0.409259968716     2.414179241955    18.998403162730
         C           -1.309163714596     1.321367968716     0.412725241955    12.000000000000
         C            0.017743285404     0.813199968716    -0.008047758045    12.000000000000
         C            1.004911285404     1.704717968716    -0.480864758045    12.000000000000
         C            2.269192285404     1.240436968716    -0.864503758045    12.000000000000
         C            2.568139285404    -0.145421031284    -0.804029758045    12.000000000000
         C            1.561490285404    -1.045733031284    -0.393135758045    12.000000000000
         C            0.287973285404    -0.584871031284    -0.017318758045    12.000000000000
         S            4.134460285404    -0.841423031284    -1.238604758045    31.972071174400
         C            5.179544285404    -0.448649031284     0.187015241955    12.000000000000
         O           -2.845972714596    -2.117478031284     0.835210241955    15.994914619570
         O           -1.601378714596     2.514418968716     0.359961241955    15.994914619570
         H            3.010993285404     1.964761968716    -1.199265758045     1.007825032230
         H            0.761614285404     2.766367968716    -0.528380758045     1.007825032230
         H           -0.597817714596    -2.494214031284     0.131543241955     1.007825032230
         H            1.778944285404    -2.113838031284    -0.352412758045     1.007825032230
         H            5.372978285404     0.628210968716     0.207259241955     1.007825032230
         H            4.669324285404    -0.749584031284     1.107603241955     1.007825032230
         H            6.125466285404    -0.990670031284     0.096377241955     1.007825032230
         O           -2.639662114596     0.035158668716    -2.148138458045    15.994914619570
         H           -3.286574114596    -0.673160331284    -2.172315458045     1.007825032230
         H           -3.099754114596     0.854773668716    -2.339919458045     1.007825032230

  Charge       = 0
  Multiplicity = 1
  Basis Set: AUG-CC-PVDZ
    Blend: AUG-CC-PVDZ
  Basis Set: (AUG-CC-PVDZ AUX)
    Blend: AUG-CC-PVDZ-JKFIT

    Orbital Energies [Eh]
    ---------------------

    Doubly Occupied:

       1A    -89.065093     2A    -24.873802     3A    -24.861786
       4A    -19.296352     5A    -19.289385     6A    -19.282076
       7A    -14.528640     8A    -10.502350     9A    -10.449694
      10A    -10.429539    11A    -10.399429    12A    -10.371978
      13A    -10.348034    14A    -10.344470    15A    -10.342587
      16A    -10.341240    17A    -10.336695    18A     -8.082581
      19A     -6.032431    20A     -6.028313    21A     -6.021399
      22A     -1.379314    23A     -1.321048    24A     -1.183784
      25A     -1.172706    26A     -1.130956    27A     -1.085724
      28A     -0.993027    29A     -0.931538    30A     -0.896717
      31A     -0.880981    32A     -0.860167    33A     -0.786413
      34A     -0.758210    35A     -0.744661    36A     -0.733952
      37A     -0.688849    38A     -0.671087    39A     -0.662419
      40A     -0.642204    41A     -0.636480    42A     -0.622156
      43A     -0.583859    44A     -0.573393    45A     -0.561972
      46A     -0.557127    47A     -0.550570    48A     -0.548810
      49A     -0.543190    50A     -0.533391    51A     -0.529653
      52A     -0.521203    53A     -0.511628    54A     -0.505150
      55A     -0.494672    56A     -0.492071    57A     -0.486868
      58A     -0.474035    59A     -0.467274    60A     -0.434785
      61A     -0.417780    62A     -0.414326    63A     -0.391847
      64A     -0.365517    65A     -0.362036    66A     -0.333637
      67A     -0.325186

  @DF-RKS Final Energy: -1264.63442099153417

   => Energetics <=

    Nuclear Repulsion Energy =           1340.9388005110231461
    One-Electron Energy =               -4401.6264648849828518
    Two-Electron Energy =                1892.0848750448678857
    DFT Exchange-Correlation Energy =     -96.0152087649981638
    Empirical Dispersion Energy =          -0.0164228974442262
    VV10 Nonlocal Energy =                  0.0000000000000000
    Total Energy =                      -1264.6344209915341708

  Dipole Moment: [D]
     X:     4.4287      Y:    -0.8367      Z:    -1.4282     Total:     4.7279

*** Psi4 exiting successfully. Buy a developer a beer!
