                               Psi4 1.3.2 release

  ==> Input File <==

--------------------------------------------------------------------------
molecule {
0 1
  N                 -0.8664290    -1.2589580    -0.1536890
  C                 -2.1480460    -0.9706410     0.2378410
  C                 -2.4007690     0.5145350     0.6579700
  F                 -3.6850840     0.8694240     0.2915950
  F                 -2.3353680     0.5658950     2.0315300
  C                 -1.3937820     1.5693870     0.0855650
  C                 -0.0656290     1.0595950    -0.3300500
  C                  0.9465510     1.9559480    -0.7385460
  C                  2.2136610     1.4889290    -1.1106430
  C                  2.4907560     0.0971820    -1.1056990
  C                  1.4623780    -0.8043860    -0.7556460
  C                  0.1875990    -0.3407930    -0.3880530
  S                  4.0542370    -0.6049660    -1.5424950
  C                  5.0346590    -0.4289270    -0.0306500
  O                 -3.0063170    -1.8468130     0.2574760
  O                 -1.6655360     2.7669320     0.0871550
  H                  2.9744450     2.2152280    -1.3953660
  H                  0.7201870     3.0225720    -0.7441760
  H                 -0.7355770    -2.2367310    -0.3731030
  H                  1.6634470    -1.8765260    -0.7569760
  H                  5.2834860     0.6263530     0.1168130
  H                  4.4568290    -0.7941620     0.8239960
  H                  5.9530340    -1.0151490    -0.1306800
--
0 1
  O                 -3.0074430    -0.3234310    -2.4094830
  H                 -3.4027070    -1.0604250    -1.9361210
  H                 -3.7053510     0.2999810    -2.6162070
}
memory 16GB
set_num_threads(8)
psi4_io.set_default_path("/scratch/Psi4-ligand")
set maxiter 500
set freeze_core True
set PROPERTIES_ORIGIN ["COM"]
e_dim= energy('wb97x-d/aug-cc-pVDZ',bsse_type='cp')

psi4.print_out('CP Energy = %10.6f' % (e_dim))
clean()
--------------------------------------------------------------------------

    Molecular point group: c1
  Charge       = 0
  Multiplicity = 1
  Basis Set: AUG-CC-PVDZ
    Blend: AUG-CC-PVDZ
  Basis Set: (AUG-CC-PVDZ AUX)
    Blend: AUG-CC-PVDZ-JKFIT
  @DF-RKS Final Energy:   -76.41953281160225
    Total Energy =                        -76.4195328116022665
    Molecular point group: c1
  Basis Set: AUG-CC-PVDZ
    Blend: AUG-CC-PVDZ
  Basis Set: (AUG-CC-PVDZ AUX)
    Blend: AUG-CC-PVDZ-JKFIT
  @DF-RKS Final Energy:   -76.41996709388926
    Total Energy =                        -76.4199670938892410
  Basis Set: AUG-CC-PVDZ
    Blend: AUG-CC-PVDZ
  Basis Set: (AUG-CC-PVDZ AUX)
    Blend: AUG-CC-PVDZ-JKFIT
  @DF-RKS Final Energy: -1188.20537929155125
    Total Energy =                      -1188.2053792915512531
  Multiplicity = 1
  Basis Set: AUG-CC-PVDZ
    Blend: AUG-CC-PVDZ
  Basis Set: (AUG-CC-PVDZ AUX)
    Blend: AUG-CC-PVDZ-JKFIT
  @DF-RKS Final Energy: -1188.20494495742446
    Total Energy =                      -1188.2049449574244591
    Molecular point group: c1

    Geometry (in Angstrom), charge = 0, multiplicity = 1:

       Center              X                  Y                   Z               Mass
    ------------   -----------------  -----------------  -----------------  -----------------
         N           -0.749662231939    -1.445552120454     0.187892227100    14.003074004430
         C           -2.031279231939    -1.157235120454     0.579422227100    12.000000000000
         C           -2.284002231939     0.327940879546     0.999551227100    12.000000000000
         F           -3.568317231939     0.682829879546     0.633176227100    18.998403162730
         F           -2.218601231939     0.379300879546     2.373111227100    18.998403162730
         C           -1.277015231939     1.382792879546     0.427146227100    12.000000000000
         C            0.051137768061     0.873000879546     0.011531227100    12.000000000000
         C            1.063317768061     1.769353879546    -0.396964772900    12.000000000000
         C            2.330427768061     1.302334879546    -0.769061772900    12.000000000000
         C            2.607522768061    -0.089412120454    -0.764117772900    12.000000000000
         C            1.579144768061    -0.990980120454    -0.414064772900    12.000000000000
         C            0.304365768061    -0.527387120454    -0.046471772900    12.000000000000
         S            4.171003768061    -0.791560120454    -1.200913772900    31.972071174400
         C            5.151425768061    -0.615521120454     0.310931227100    12.000000000000
         O           -2.889550231939    -2.033407120454     0.599057227100    15.994914619570
         O           -1.548769231939     2.580337879546     0.428736227100    15.994914619570
         H            3.091211768061     2.028633879546    -1.053784772900     1.007825032230
         H            0.836953768061     2.835977879546    -0.402594772900     1.007825032230
         H           -0.618810231939    -2.423325120454    -0.031521772900     1.007825032230
         H            1.780213768061    -2.063120120454    -0.415394772900     1.007825032230
         H            5.400252768061     0.439758879546     0.458394227100     1.007825032230
         H            4.573595768061    -0.980756120454     1.165577227100     1.007825032230
         H            6.069800768061    -1.201743120454     0.210901227100     1.007825032230
         O           -2.890676231939    -0.510025120454    -2.067901772900    15.994914619570
         H           -3.285940231939    -1.247019120454    -1.594539772900     1.007825032230
         H           -3.588584231939     0.113386879546    -2.274625772900     1.007825032230

  Charge       = 0
  Multiplicity = 1
  Basis Set: AUG-CC-PVDZ
    Blend: AUG-CC-PVDZ
  Basis Set: (AUG-CC-PVDZ AUX)
    Blend: AUG-CC-PVDZ-JKFIT

    Orbital Energies [Eh]
    ---------------------

    Doubly Occupied:

       1A    -89.066234     2A    -24.878071     3A    -24.866491
       4A    -19.299948     5A    -19.288030     6A    -19.281476
       7A    -14.533041     8A    -10.506649     9A    -10.456327
      10A    -10.432415    11A    -10.402534    12A    -10.374298
      13A    -10.351686    14A    -10.347367    15A    -10.345512
      16A    -10.342432    17A    -10.339495    18A     -8.083725
      19A     -6.033597    20A     -6.029464    21A     -6.022508
      22A     -1.383918    23A     -1.325706    24A     -1.190038
      25A     -1.176691    26A     -1.123579    27A     -1.090376
      28A     -0.995821    29A     -0.934017    30A     -0.900227
      31A     -0.884148    32A     -0.863203    33A     -0.788910
      34A     -0.762142    35A     -0.748509    36A     -0.736619
      37A     -0.692535    38A     -0.674773    39A     -0.667219
      40A     -0.640252    41A     -0.637590    42A     -0.625848
      43A     -0.587011    44A     -0.576128    45A     -0.566961
      46A     -0.560932    47A     -0.553585    48A     -0.551687
      49A     -0.546681    50A     -0.536888    51A     -0.530669
      52A     -0.524559    53A     -0.515824    54A     -0.509090
      55A     -0.497929    56A     -0.490855    57A     -0.484990
      58A     -0.477135    59A     -0.470165    60A     -0.438009
      61A     -0.417127    62A     -0.410748    63A     -0.397116
      64A     -0.369518    65A     -0.363472    66A     -0.336511
      67A     -0.328745

  @DF-RKS Final Energy: -1264.63415468898211

   => Energetics <=

    Nuclear Repulsion Energy =           1340.7021812244038301
    One-Electron Energy =               -4400.7989686907358191
    Two-Electron Energy =                1891.4987568709889274
    DFT Exchange-Correlation Energy =     -96.0196943157979916
    Empirical Dispersion Energy =          -0.0164297778412325
    VV10 Nonlocal Energy =                  0.0000000000000000
    Total Energy =                      -1264.6341546889823348

  Dipole Moment: [D]
     X:     4.6744      Y:    -1.2435      Z:    -0.3280     Total:     4.8481

*** Psi4 exiting successfully. Buy a developer a beer!
