                               Psi4 1.3.2 release

  ==> Input File <==

--------------------------------------------------------------------------
molecule {
0 1
  N                 -0.7735580    -1.3877650     0.3762830
  C                 -2.0506670    -1.1155840     0.7908700
  C                 -2.5043840     0.3774880     0.6774080
  F                 -3.5962270     0.4156400    -0.1601540
  F                 -2.9061990     0.7850010     1.9298970
  C                 -1.4528850     1.4123530     0.1460210
  C                 -0.1227770     0.8977000    -0.2526910
  C                  0.8620890     1.7845470    -0.7401720
  C                  2.1113680     1.3117470    -1.1603950
  C                  2.4259530    -0.0670330    -1.0508120
  C                  1.4556270    -0.9494480    -0.5289330
  C                  0.1886820    -0.4855360    -0.1346250
  S                  3.9638070    -0.7835970    -1.5571510
  C                  5.1473010    -0.1867290    -0.3239010
  O                 -2.7686020    -2.0098140     1.2138050
  O                 -1.7369170     2.6034530     0.0621640
  H                  2.8251380     2.0222360    -1.5760210
  H                  0.6132780     2.8438570    -0.8113500
  H                 -0.5385400    -2.3658440     0.4783350
  H                  1.6887170    -2.0114780    -0.4410070
  H                  5.2957800     0.8895290    -0.4541750
  H                  4.7632760    -0.3852570     0.6822070
  H                  6.0990420    -0.7082150    -0.4615910
--
0 1
  O                  2.8393658     0.3129444     1.9755328
  H                  2.4249378     0.5085044     1.1334898
  H                  2.7699618     1.0895074     2.5312248
}
memory 16GB
set_num_threads(8)
psi4_io.set_default_path("/scratch/Psi4-ligand")
set maxiter 500
set freeze_core True
set PROPERTIES_ORIGIN ["COM"]
e_dim= energy('wb97x-d/aug-cc-pVDZ',bsse_type='cp')

psi4.print_out('CP Energy = %10.6f' % (e_dim))
clean()
--------------------------------------------------------------------------

    Molecular point group: c1
  Charge       = 0
  Multiplicity = 1
  Basis Set: AUG-CC-PVDZ
    Blend: AUG-CC-PVDZ
  Basis Set: (AUG-CC-PVDZ AUX)
    Blend: AUG-CC-PVDZ-JKFIT
  @DF-RKS Final Energy:   -76.41946858302981
    Total Energy =                        -76.4194685830298113
    Molecular point group: c1
  Basis Set: AUG-CC-PVDZ
    Blend: AUG-CC-PVDZ
  Basis Set: (AUG-CC-PVDZ AUX)
    Blend: AUG-CC-PVDZ-JKFIT
  @DF-RKS Final Energy:   -76.42008778389270
    Total Energy =                        -76.4200877838926971
  Basis Set: AUG-CC-PVDZ
    Blend: AUG-CC-PVDZ
  Basis Set: (AUG-CC-PVDZ AUX)
    Blend: AUG-CC-PVDZ-JKFIT
  @DF-RKS Final Energy: -1188.20715109004027
    Total Energy =                      -1188.2071510900402700
  Multiplicity = 1
  Basis Set: AUG-CC-PVDZ
    Blend: AUG-CC-PVDZ
  Basis Set: (AUG-CC-PVDZ AUX)
    Blend: AUG-CC-PVDZ-JKFIT
  @DF-RKS Final Energy: -1188.20639989362189
    Total Energy =                      -1188.2063998936218923
    Molecular point group: c1

    Geometry (in Angstrom), charge = 0, multiplicity = 1:

       Center              X                  Y                   Z               Mass
    ------------   -----------------  -----------------  -----------------  -----------------
         N           -1.020971023462    -1.504520775432     0.333082994223    14.003074004430
         C           -2.298080023462    -1.232339775432     0.747669994223    12.000000000000
         C           -2.751797023462     0.260732224568     0.634207994223    12.000000000000
         F           -3.843640023462     0.298884224568    -0.203354005777    18.998403162730
         F           -3.153612023462     0.668245224568     1.886696994223    18.998403162730
         C           -1.700298023462     1.295597224568     0.102820994223    12.000000000000
         C           -0.370190023462     0.780944224568    -0.295891005777    12.000000000000
         C            0.614675976538     1.667791224568    -0.783372005777    12.000000000000
         C            1.863954976538     1.194991224568    -1.203595005777    12.000000000000
         C            2.178539976538    -0.183788775432    -1.094012005777    12.000000000000
         C            1.208213976538    -1.066203775432    -0.572133005777    12.000000000000
         C           -0.058731023462    -0.602291775432    -0.177825005777    12.000000000000
         S            3.716393976538    -0.900352775432    -1.600351005777    31.972071174400
         C            4.899887976538    -0.303484775432    -0.367101005777    12.000000000000
         O           -3.016015023462    -2.126569775432     1.170604994223    15.994914619570
         O           -1.984330023462     2.486697224568     0.018963994223    15.994914619570
         H            2.577724976538     1.905480224568    -1.619221005777     1.007825032230
         H            0.365864976538     2.727101224568    -0.854550005777     1.007825032230
         H           -0.785953023462    -2.482599775432     0.435134994223     1.007825032230
         H            1.441303976538    -2.128233775432    -0.484207005777     1.007825032230
         H            5.048366976538     0.772773224568    -0.497375005777     1.007825032230
         H            4.515862976538    -0.502012775432     0.639006994223     1.007825032230
         H            5.851628976538    -0.824970775432    -0.504791005777     1.007825032230
         O            2.591952776538     0.196188624568     1.932332794223    15.994914619570
         H            2.177524776538     0.391748624568     1.090289794223     1.007825032230
         H            2.522548776538     0.972751624568     2.488024794223     1.007825032230

  Charge       = 0
  Multiplicity = 1
  Basis Set: AUG-CC-PVDZ
    Blend: AUG-CC-PVDZ
  Basis Set: (AUG-CC-PVDZ AUX)
    Blend: AUG-CC-PVDZ-JKFIT

    Orbital Energies [Eh]
    ---------------------

    Doubly Occupied:

       1A    -89.070618     2A    -24.876724     3A    -24.875857
       4A    -19.306672     5A    -19.289441     6A    -19.286181
       7A    -14.539089     8A    -10.511654     9A    -10.457144
      10A    -10.438988    11A    -10.412583    12A    -10.384503
      13A    -10.360738    14A    -10.358167    15A    -10.354274
      16A    -10.349778    17A    -10.337711    18A     -8.088004
      19A     -6.037890    20A     -6.033673    21A     -6.026859
      22A     -1.387588    23A     -1.331659    24A     -1.193000
      25A     -1.184350    26A     -1.130701    27A     -1.096975
      28A     -1.006649    29A     -0.940788    30A     -0.905497
      31A     -0.892936    32A     -0.868116    33A     -0.793884
      34A     -0.769532    35A     -0.755508    36A     -0.742073
      37A     -0.699225    38A     -0.682677    39A     -0.671680
      40A     -0.649189    41A     -0.645527    42A     -0.632146
      43A     -0.594561    44A     -0.583065    45A     -0.569592
      46A     -0.565698    47A     -0.561212    48A     -0.557260
      49A     -0.554320    50A     -0.538370    51A     -0.529605
      52A     -0.525979    53A     -0.521102    54A     -0.514655
      55A     -0.503079    56A     -0.499773    57A     -0.488418
      58A     -0.479861    59A     -0.478085    60A     -0.442844
      61A     -0.425537    62A     -0.415093    63A     -0.400219
      64A     -0.375987    65A     -0.374273    66A     -0.345346
      67A     -0.329182

  @DF-RKS Final Energy: -1264.63047243456481

   => Energetics <=

    Nuclear Repulsion Energy =           1342.2108603180615773
    One-Electron Energy =               -4403.0290146837405700
    Two-Electron Energy =                1892.2408527419049733
    DFT Exchange-Correlation Energy =     -96.0357434415015234
    Empirical Dispersion Energy =          -0.0174273692890213
    VV10 Nonlocal Energy =                  0.0000000000000000
    Total Energy =                      -1264.6304724345648083

  Dipole Moment: [D]
     X:     5.8841      Y:     0.3841      Z:    -1.0674     Total:     5.9924

*** Psi4 exiting successfully. Buy a developer a beer!
