                               Psi4 1.3.2 release

  ==> Input File <==

--------------------------------------------------------------------------
molecule {
0 1
  N                 -0.8910240    -1.4030780    -0.0050850
  C                 -2.1808660    -1.1218050     0.3703250
  C                 -2.4689910     0.3847960     0.6739010
  F                 -3.7849310     0.6704210     0.3591430
  F                 -2.3291420     0.5634900     2.0316330
  C                 -1.5277770     1.4100670    -0.0475910
  C                 -0.1824620     0.9149700    -0.4256940
  C                  0.7873200     1.8015830    -0.9424290
  C                  2.0693580     1.3486090    -1.2791370
  C                  2.4018320    -0.0232130    -1.1337320
  C                  1.4130960    -0.9230310    -0.6803090
  C                  0.1246030    -0.4738350    -0.3445350
  S                  3.9885200    -0.7054780    -1.5137690
  C                  4.9737920    -0.3323170    -0.0410660
  O                 -3.0031200    -2.0217960     0.5026800
  O                 -1.8575620     2.5856590    -0.1852130
  H                  2.7984520     2.0707080    -1.6457550
  H                  0.5177650     2.8518550    -1.0566600
  H                 -0.7268170    -2.3929600    -0.1238800
  H                  1.6556850    -1.9812730    -0.5767180
  H                  5.1536430     0.7460270     0.0098090
  H                  4.4330830    -0.6596020     0.8528180
  H                  5.9285950    -0.8622630    -0.1078720
--
0 1
  O                 -2.8474150    -0.4746240    -2.2069650
  H                 -3.4144550    -1.2400570    -2.0843050
  H                 -3.3817620     0.2210850    -2.5942830
}
memory 16GB
set_num_threads(8)
psi4_io.set_default_path("/scratch/Psi4-ligand")
set maxiter 500
set freeze_core True
set PROPERTIES_ORIGIN ["COM"]
e_dim= energy('wb97x-d/aug-cc-pVDZ',bsse_type='cp')

psi4.print_out('CP Energy = %10.6f' % (e_dim))
clean()
--------------------------------------------------------------------------

    Molecular point group: c1
  Charge       = 0
  Multiplicity = 1
  Basis Set: AUG-CC-PVDZ
    Blend: AUG-CC-PVDZ
  Basis Set: (AUG-CC-PVDZ AUX)
    Blend: AUG-CC-PVDZ-JKFIT
  @DF-RKS Final Energy:   -76.41957322385974
    Total Energy =                        -76.4195732238597429
    Molecular point group: c1
  Basis Set: AUG-CC-PVDZ
    Blend: AUG-CC-PVDZ
  Basis Set: (AUG-CC-PVDZ AUX)
    Blend: AUG-CC-PVDZ-JKFIT
  @DF-RKS Final Energy:   -76.42009731915917
    Total Energy =                        -76.4200973191591686
  Basis Set: AUG-CC-PVDZ
    Blend: AUG-CC-PVDZ
  Basis Set: (AUG-CC-PVDZ AUX)
    Blend: AUG-CC-PVDZ-JKFIT
  @DF-RKS Final Energy: -1188.20542952104847
    Total Energy =                      -1188.2054295210486998
  Multiplicity = 1
  Basis Set: AUG-CC-PVDZ
    Blend: AUG-CC-PVDZ
  Basis Set: (AUG-CC-PVDZ AUX)
    Blend: AUG-CC-PVDZ-JKFIT
  @DF-RKS Final Energy: -1188.20489140884638
    Total Energy =                      -1188.2048914088463789
    Molecular point group: c1

    Geometry (in Angstrom), charge = 0, multiplicity = 1:

       Center              X                  Y                   Z               Mass
    ------------   -----------------  -----------------  -----------------  -----------------
         N           -0.713190705923    -1.469126175934     0.327671041954    14.003074004430
         C           -2.003032705923    -1.187853175934     0.703081041954    12.000000000000
         C           -2.291157705923     0.318747824066     1.006657041954    12.000000000000
         F           -3.607097705923     0.604372824066     0.691899041954    18.998403162730
         F           -2.151308705923     0.497441824066     2.364389041954    18.998403162730
         C           -1.349943705923     1.344018824066     0.285165041954    12.000000000000
         C           -0.004628705923     0.848921824066    -0.092937958046    12.000000000000
         C            0.965153294077     1.735534824066    -0.609672958046    12.000000000000
         C            2.247191294077     1.282560824066    -0.946380958046    12.000000000000
         C            2.579665294077    -0.089261175934    -0.800975958046    12.000000000000
         C            1.590929294077    -0.989079175934    -0.347552958046    12.000000000000
         C            0.302436294077    -0.539883175934    -0.011778958046    12.000000000000
         S            4.166353294077    -0.771526175934    -1.181012958046    31.972071174400
         C            5.151625294077    -0.398365175934     0.291690041954    12.000000000000
         O           -2.825286705923    -2.087844175934     0.835436041954    15.994914619570
         O           -1.679728705923     2.519610824066     0.147543041954    15.994914619570
         H            2.976285294077     2.004659824066    -1.312998958046     1.007825032230
         H            0.695598294077     2.785806824066    -0.723903958046     1.007825032230
         H           -0.548983705923    -2.459008175934     0.208876041954     1.007825032230
         H            1.833518294077    -2.047321175934    -0.243961958046     1.007825032230
         H            5.331476294077     0.679978824066     0.342565041954     1.007825032230
         H            4.610916294077    -0.725650175934     1.185574041954     1.007825032230
         H            6.106428294077    -0.928311175934     0.224884041954     1.007825032230
         O           -2.669581705923    -0.540672175934    -1.874208958046    15.994914619570
         H           -3.236621705923    -1.306105175934    -1.751548958046     1.007825032230
         H           -3.203928705923     0.155036824066    -2.261526958046     1.007825032230

  Charge       = 0
  Multiplicity = 1
  Basis Set: AUG-CC-PVDZ
    Blend: AUG-CC-PVDZ
  Basis Set: (AUG-CC-PVDZ AUX)
    Blend: AUG-CC-PVDZ-JKFIT

    Orbital Energies [Eh]
    ---------------------

    Doubly Occupied:

       1A    -89.064293     2A    -24.873634     3A    -24.860505
       4A    -19.296537     5A    -19.292418     6A    -19.280836
       7A    -14.526596     8A    -10.501226     9A    -10.449728
      10A    -10.429145    11A    -10.398821    12A    -10.371402
      13A    -10.348149    14A    -10.344431    15A    -10.342175
      16A    -10.340765    17A    -10.336589    18A     -8.081776
      19A     -6.031636    20A     -6.027521    21A     -6.020572
      22A     -1.378739    23A     -1.319845    24A     -1.182432
      25A     -1.173008    26A     -1.134755    27A     -1.084205
      28A     -0.992474    29A     -0.931056    30A     -0.896147
      31A     -0.880573    32A     -0.859568    33A     -0.785689
      34A     -0.757368    35A     -0.743782    36A     -0.733124
      37A     -0.688517    38A     -0.669859    39A     -0.661691
      40A     -0.646470    41A     -0.635551    42A     -0.621686
      43A     -0.583493    44A     -0.573140    45A     -0.562339
      46A     -0.556574    47A     -0.550396    48A     -0.548764
      49A     -0.541422    50A     -0.533091    51A     -0.528782
      52A     -0.521359    53A     -0.510579    54A     -0.505051
      55A     -0.496289    56A     -0.492798    57A     -0.486990
      58A     -0.473990    59A     -0.466671    60A     -0.434909
      61A     -0.420339    62A     -0.413255    63A     -0.391282
      64A     -0.364980    65A     -0.360559    66A     -0.332528
      67A     -0.326250

  @DF-RKS Final Energy: -1264.63515699830464

   => Energetics <=

    Nuclear Repulsion Energy =           1347.6333615355940765
    One-Electron Energy =               -4415.0525155812110825
    Two-Electron Energy =                1898.8196246269662879
    DFT Exchange-Correlation Energy =     -96.0188951273159432
    Empirical Dispersion Energy =          -0.0167324523382898
    VV10 Nonlocal Energy =                  0.0000000000000000
    Total Energy =                      -1264.6351569983048648

  Dipole Moment: [D]
     X:     4.3139      Y:    -1.1377      Z:    -1.3726     Total:     4.6677

*** Psi4 exiting successfully. Buy a developer a beer!
