                               Psi4 1.3.2 release

  ==> Input File <==

--------------------------------------------------------------------------
molecule {
0 1
  N                 -0.8664290    -1.2589580    -0.1536890
  C                 -2.1480460    -0.9706410     0.2378410
  C                 -2.4007690     0.5145350     0.6579700
  F                 -3.6850840     0.8694240     0.2915950
  F                 -2.3353680     0.5658950     2.0315300
  C                 -1.3937820     1.5693870     0.0855650
  C                 -0.0656290     1.0595950    -0.3300500
  C                  0.9465510     1.9559480    -0.7385460
  C                  2.2136610     1.4889290    -1.1106430
  C                  2.4907560     0.0971820    -1.1056990
  C                  1.4623780    -0.8043860    -0.7556460
  C                  0.1875990    -0.3407930    -0.3880530
  S                  4.0542370    -0.6049660    -1.5424950
  C                  5.0346590    -0.4289270    -0.0306500
  O                 -3.0063170    -1.8468130     0.2574760
  O                 -1.6655360     2.7669320     0.0871550
  H                  2.9744450     2.2152280    -1.3953660
  H                  0.7201870     3.0225720    -0.7441760
  H                 -0.7355770    -2.2367310    -0.3731030
  H                  1.6634470    -1.8765260    -0.7569760
  H                  5.2834860     0.6263530     0.1168130
  H                  4.4568290    -0.7941620     0.8239960
  H                  5.9530340    -1.0151490    -0.1306800
--
0 1
  O                 -2.7565108    -0.3054742    -1.9746906
  H                 -3.1517748    -1.0424682    -1.5013286
  H                 -3.4544188     0.3179378    -2.1814146
}
memory 16GB
set_num_threads(8)
psi4_io.set_default_path("/scratch/Psi4-ligand")
set maxiter 500
set freeze_core True
set PROPERTIES_ORIGIN ["COM"]
e_dim= energy('wb97x-d/aug-cc-pVDZ',bsse_type='cp')

psi4.print_out('CP Energy = %10.6f' % (e_dim))
clean()
--------------------------------------------------------------------------

    Molecular point group: c1
  Charge       = 0
  Multiplicity = 1
  Basis Set: AUG-CC-PVDZ
    Blend: AUG-CC-PVDZ
  Basis Set: (AUG-CC-PVDZ AUX)
    Blend: AUG-CC-PVDZ-JKFIT
  @DF-RKS Final Energy:   -76.41953281154116
    Total Energy =                        -76.4195328115411456
    Molecular point group: c1
  Basis Set: AUG-CC-PVDZ
    Blend: AUG-CC-PVDZ
  Basis Set: (AUG-CC-PVDZ AUX)
    Blend: AUG-CC-PVDZ-JKFIT
  @DF-RKS Final Energy:   -76.42030082989641
    Total Energy =                        -76.4203008298964050
  Basis Set: AUG-CC-PVDZ
    Blend: AUG-CC-PVDZ
  Basis Set: (AUG-CC-PVDZ AUX)
    Blend: AUG-CC-PVDZ-JKFIT
  @DF-RKS Final Energy: -1188.20572520341989
    Total Energy =                      -1188.2057252034198882
  Multiplicity = 1
  Basis Set: AUG-CC-PVDZ
    Blend: AUG-CC-PVDZ
  Basis Set: (AUG-CC-PVDZ AUX)
    Blend: AUG-CC-PVDZ-JKFIT
  @DF-RKS Final Energy: -1188.20494211287269
    Total Energy =                      -1188.2049421128726863
    Molecular point group: c1

    Geometry (in Angstrom), charge = 0, multiplicity = 1:

       Center              X                  Y                   Z               Mass
    ------------   -----------------  -----------------  -----------------  -----------------
         N           -0.766976258956    -1.446791118560     0.157892062271    14.003074004430
         C           -2.048593258956    -1.158474118560     0.549422062271    12.000000000000
         C           -2.301316258956     0.326701881440     0.969551062271    12.000000000000
         F           -3.585631258956     0.681590881440     0.603176062271    18.998403162730
         F           -2.235915258956     0.378061881440     2.343111062271    18.998403162730
         C           -1.294329258956     1.381553881440     0.397146062271    12.000000000000
         C            0.033823741044     0.871761881440    -0.018468937729    12.000000000000
         C            1.046003741044     1.768114881440    -0.426964937729    12.000000000000
         C            2.313113741044     1.301095881440    -0.799061937729    12.000000000000
         C            2.590208741044    -0.090651118560    -0.794117937729    12.000000000000
         C            1.561830741044    -0.992219118560    -0.444064937729    12.000000000000
         C            0.287051741044    -0.528626118560    -0.076471937729    12.000000000000
         S            4.153689741044    -0.792799118560    -1.230913937729    31.972071174400
         C            5.134111741044    -0.616760118560     0.280931062271    12.000000000000
         O           -2.906864258956    -2.034646118560     0.569057062271    15.994914619570
         O           -1.566083258956     2.579098881440     0.398736062271    15.994914619570
         H            3.073897741044     2.027394881440    -1.083784937729     1.007825032230
         H            0.819639741044     2.834738881440    -0.432594937729     1.007825032230
         H           -0.636124258956    -2.424564118560    -0.061521937729     1.007825032230
         H            1.762899741044    -2.064359118560    -0.445394937729     1.007825032230
         H            5.382938741044     0.438519881440     0.428394062271     1.007825032230
         H            4.556281741044    -0.981995118560     1.135577062271     1.007825032230
         H            6.052486741044    -1.202982118560     0.180901062271     1.007825032230
         O           -2.657058058956    -0.493307318560    -1.663109537729    15.994914619570
         H           -3.052322058956    -1.230301318560    -1.189747537729     1.007825032230
         H           -3.354966058956     0.130104681440    -1.869833537729     1.007825032230

  Charge       = 0
  Multiplicity = 1
  Basis Set: AUG-CC-PVDZ
    Blend: AUG-CC-PVDZ
  Basis Set: (AUG-CC-PVDZ AUX)
    Blend: AUG-CC-PVDZ-JKFIT

    Orbital Energies [Eh]
    ---------------------

    Doubly Occupied:

       1A    -89.065661     2A    -24.877501     3A    -24.867768
       4A    -19.298977     5A    -19.287979     6A    -19.286013
       7A    -14.531112     8A    -10.506053     9A    -10.459038
      10A    -10.431941    11A    -10.401187    12A    -10.373359
      13A    -10.350829    14A    -10.346365    15A    -10.344732
      16A    -10.341898    17A    -10.338820    18A     -8.083146
      19A     -6.033012    20A     -6.028887    21A     -6.021935
      22A     -1.384380    23A     -1.326820    24A     -1.195965
      25A     -1.176056    26A     -1.132004    27A     -1.090024
      28A     -0.995039    29A     -0.933187    30A     -0.899702
      31A     -0.883410    32A     -0.862817    33A     -0.788446
      34A     -0.761968    35A     -0.747961    36A     -0.736287
      37A     -0.692440    38A     -0.674936    39A     -0.670444
      40A     -0.653490    41A     -0.639667    42A     -0.625888
      43A     -0.586278    44A     -0.575723    45A     -0.567200
      46A     -0.558379    47A     -0.553318    48A     -0.551354
      49A     -0.547007    50A     -0.537021    51A     -0.530232
      52A     -0.524351    53A     -0.519676    54A     -0.507830
      55A     -0.498522    56A     -0.493700    57A     -0.490703
      58A     -0.476584    59A     -0.469561    60A     -0.436722
      61A     -0.417408    62A     -0.414762    63A     -0.398377
      64A     -0.369531    65A     -0.362514    66A     -0.336167
      67A     -0.328239

  @DF-RKS Final Energy: -1264.62682228347830

   => Energetics <=

    Nuclear Repulsion Energy =           1358.0170239710480473
    One-Electron Energy =               -4435.3303050507893204
    Two-Electron Energy =                1908.7499116880399015
    DFT Exchange-Correlation Energy =     -96.0465266481244271
    Empirical Dispersion Energy =          -0.0169262436522329
    VV10 Nonlocal Energy =                  0.0000000000000000
    Total Energy =                      -1264.6268222834783046

  Dipole Moment: [D]
     X:     4.6361      Y:    -1.2048      Z:    -0.4415     Total:     4.8104

*** Psi4 exiting successfully. Buy a developer a beer!
