                               Psi4 1.3.2 release

  ==> Input File <==

--------------------------------------------------------------------------
molecule {
0 1
  N                 -0.9434020    -1.2946320    -0.0708730
  C                 -2.2086410    -1.0439180     0.3936770
  C                 -2.5064230     0.4442600     0.7696760
  F                 -3.7903720     0.7497380     0.3523190
  F                 -2.4836960     0.5330490     2.1429320
  C                 -1.5166830     1.5216170     0.2013870
  C                 -0.1964200     1.0409120    -0.2702800
  C                  0.7882390     1.9604880    -0.6925130
  C                  2.0449640     1.5210510    -1.1271190
  C                  2.3379690     0.1335820    -1.1724330
  C                  1.3372550    -0.7903110    -0.8016000
  C                  0.0734500    -0.3537710    -0.3679190
  S                  3.8924890    -0.5349890    -1.6856220
  C                  4.9258200    -0.3817870    -0.2070430
  O                 -3.0103620    -1.9559730     0.5455690
  O                 -1.8061590     2.7159920     0.2283820
  H                  2.7864760     2.2648640    -1.4172820
  H                  0.5494890     3.0238560    -0.6588960
  H                 -0.7909570    -2.2752920    -0.2609620
  H                  1.5516850    -1.8593380    -0.8390890
  H                  5.1500330     0.6747250    -0.0313260
  H                  4.3926260    -0.7947290     0.6550380
  H                  5.8560830    -0.9356900    -0.3635650
--
0 1
  O                 -2.7170410     0.4496690    -2.3153140
  H                 -3.6411950     0.4696830    -2.0558230
  H                 -2.5520000     1.2069950    -2.8789620
}
memory 16GB
set_num_threads(8)
psi4_io.set_default_path("/scratch/Psi4-ligand")
set maxiter 500
set freeze_core True
set PROPERTIES_ORIGIN ["COM"]
e_dim= energy('wb97x-d/aug-cc-pVDZ',bsse_type='cp')

psi4.print_out('CP Energy = %10.6f' % (e_dim))
clean()
--------------------------------------------------------------------------

    Molecular point group: c1
  Charge       = 0
  Multiplicity = 1
  Basis Set: AUG-CC-PVDZ
    Blend: AUG-CC-PVDZ
  Basis Set: (AUG-CC-PVDZ AUX)
    Blend: AUG-CC-PVDZ-JKFIT
  @DF-RKS Final Energy:   -76.41951278059177
    Total Energy =                        -76.4195127805917735
    Molecular point group: c1
  Basis Set: AUG-CC-PVDZ
    Blend: AUG-CC-PVDZ
  Basis Set: (AUG-CC-PVDZ AUX)
    Blend: AUG-CC-PVDZ-JKFIT
  @DF-RKS Final Energy:   -76.41998504221698
    Total Energy =                        -76.4199850422169504
  Basis Set: AUG-CC-PVDZ
    Blend: AUG-CC-PVDZ
  Basis Set: (AUG-CC-PVDZ AUX)
    Blend: AUG-CC-PVDZ-JKFIT
  @DF-RKS Final Energy: -1188.20581550290171
    Total Energy =                      -1188.2058155029017144
  Multiplicity = 1
  Basis Set: AUG-CC-PVDZ
    Blend: AUG-CC-PVDZ
  Basis Set: (AUG-CC-PVDZ AUX)
    Blend: AUG-CC-PVDZ-JKFIT
  @DF-RKS Final Energy: -1188.20527896296608
    Total Energy =                      -1188.2052789629660765
    Molecular point group: c1

    Geometry (in Angstrom), charge = 0, multiplicity = 1:

       Center              X                  Y                   Z               Mass
    ------------   -----------------  -----------------  -----------------  -----------------
         N           -0.736163547605    -1.520281605482     0.233063830788    14.003074004430
         C           -2.001402547605    -1.269567605482     0.697613830788    12.000000000000
         C           -2.299184547605     0.218610394518     1.073612830788    12.000000000000
         F           -3.583133547605     0.524088394518     0.656255830788    18.998403162730
         F           -2.276457547605     0.307399394518     2.446868830788    18.998403162730
         C           -1.309444547605     1.295967394518     0.505323830788    12.000000000000
         C            0.010818452395     0.815262394518     0.033656830788    12.000000000000
         C            0.995477452395     1.734838394518    -0.388576169212    12.000000000000
         C            2.252202452395     1.295401394518    -0.823182169212    12.000000000000
         C            2.545207452395    -0.092067605482    -0.868496169212    12.000000000000
         C            1.544493452395    -1.015960605482    -0.497663169212    12.000000000000
         C            0.280688452395    -0.579420605482    -0.063982169212    12.000000000000
         S            4.099727452395    -0.760638605482    -1.381685169212    31.972071174400
         C            5.133058452395    -0.607436605482     0.096893830788    12.000000000000
         O           -2.803123547605    -2.181622605482     0.849505830788    15.994914619570
         O           -1.598920547605     2.490342394518     0.532318830788    15.994914619570
         H            2.993714452395     2.039214394518    -1.113345169212     1.007825032230
         H            0.756727452395     2.798206394518    -0.354959169212     1.007825032230
         H           -0.583718547605    -2.500941605482     0.042974830788     1.007825032230
         H            1.758923452395    -2.084987605482    -0.535152169212     1.007825032230
         H            5.357271452395     0.449075394518     0.272610830788     1.007825032230
         H            4.599864452395    -1.020378605482     0.958974830788     1.007825032230
         H            6.063321452395    -1.161339605482    -0.059628169212     1.007825032230
         O           -2.509802547605     0.224019394518    -2.011377169212    15.994914619570
         H           -3.433956547605     0.244033394518    -1.751886169212     1.007825032230
         H           -2.344761547605     0.981345394518    -2.575025169212     1.007825032230

  Charge       = 0
  Multiplicity = 1
  Basis Set: AUG-CC-PVDZ
    Blend: AUG-CC-PVDZ
  Basis Set: (AUG-CC-PVDZ AUX)
    Blend: AUG-CC-PVDZ-JKFIT

    Orbital Energies [Eh]
    ---------------------

    Doubly Occupied:

       1A    -89.065039     2A    -24.874722     3A    -24.867691
       4A    -19.296498     5A    -19.291396     6A    -19.280850
       7A    -14.527563     8A    -10.504070     9A    -10.448569
      10A    -10.430802    11A    -10.399677    12A    -10.372198
      13A    -10.349088    14A    -10.345408    15A    -10.343185
      16A    -10.341422    17A    -10.337666    18A     -8.082532
      19A     -6.032393    20A     -6.028272    21A     -6.021328
      22A     -1.381700    23A     -1.325099    24A     -1.182940
      25A     -1.173387    26A     -1.133490    27A     -1.085003
      28A     -0.993553    29A     -0.931957    30A     -0.897012
      31A     -0.881663    32A     -0.860973    33A     -0.787172
      34A     -0.758590    35A     -0.744916    36A     -0.734796
      37A     -0.690310    38A     -0.672225    39A     -0.665485
      40A     -0.646596    41A     -0.636242    42A     -0.622367
      43A     -0.584148    44A     -0.574038    45A     -0.561712
      46A     -0.557171    47A     -0.551202    48A     -0.549849
      49A     -0.545652    50A     -0.534713    51A     -0.529699
      52A     -0.522750    53A     -0.516015    54A     -0.505547
      55A     -0.496134    56A     -0.493723    57A     -0.488717
      58A     -0.474216    59A     -0.468098    60A     -0.434707
      61A     -0.420110    62A     -0.414391    63A     -0.391576
      64A     -0.365591    65A     -0.361501    66A     -0.333074
      67A     -0.326988

  @DF-RKS Final Energy: -1264.63524242990138

   => Energetics <=

    Nuclear Repulsion Energy =           1346.2210728449374528
    One-Electron Energy =               -4412.0762781653074853
    Two-Electron Energy =                1897.2555010484816194
    DFT Exchange-Correlation Energy =     -96.0188536786010900
    Empirical Dispersion Energy =          -0.0166844794118203
    VV10 Nonlocal Energy =                  0.0000000000000000
    Total Energy =                      -1264.6352424299016093

  Dipole Moment: [D]
     X:     4.8534      Y:     0.0336      Z:    -1.6600     Total:     5.1296

*** Psi4 exiting successfully. Buy a developer a beer!
