                               Psi4 1.3.2 release

  ==> Input File <==

--------------------------------------------------------------------------
molecule {
0 1
  N                 -0.9782100    -1.3675700    -0.0527530
  C                 -2.2531490    -1.0840870     0.3652430
  C                 -2.5284270     0.4178140     0.7045670
  F                 -3.8206750     0.7286450     0.3229830
  F                 -2.4611000     0.5483650     2.0729670
  C                 -1.5431250     1.4604730     0.0715130
  C                 -0.2162180     0.9523050    -0.3492600
  C                  0.7709500     1.8438230    -0.8220770
  C                  2.0352310     1.3795420    -1.2057160
  C                  2.3341780    -0.0063160    -1.1452420
  C                  1.3275290    -0.9066280    -0.7343480
  C                  0.0540120    -0.4457660    -0.3585310
  S                  3.9004990    -0.7023180    -1.5798170
  C                  4.9455830    -0.3095440    -0.1541970
  O                 -3.0799340    -1.9783730     0.4939980
  O                 -1.8353400     2.6535240     0.0187490
  H                  2.7770320     2.1038670    -1.5404780
  H                  0.5276530     2.9054730    -0.8695930
  H                 -0.8317790    -2.3551090    -0.2096690
  H                  1.5449830    -1.9747330    -0.6936250
  H                  5.1390170     0.7673160    -0.1339530
  H                  4.4353630    -0.6104790     0.7663910
  H                  5.8915050    -0.8515650    -0.2448350
--
0 1
  O                 -2.7875278     0.1238654    -2.7450174
  H                 -3.4344398    -0.5844536    -2.7691944
  H                 -3.2476198     0.9434804    -2.9367984
}
memory 16GB
set_num_threads(8)
psi4_io.set_default_path("/scratch/Psi4-ligand")
set maxiter 500
set freeze_core True
set PROPERTIES_ORIGIN ["COM"]
e_dim= energy('wb97x-d/aug-cc-pVDZ',bsse_type='cp')

psi4.print_out('CP Energy = %10.6f' % (e_dim))
clean()
--------------------------------------------------------------------------

    Molecular point group: c1
  Charge       = 0
  Multiplicity = 1
  Basis Set: AUG-CC-PVDZ
    Blend: AUG-CC-PVDZ
  Basis Set: (AUG-CC-PVDZ AUX)
    Blend: AUG-CC-PVDZ-JKFIT
  @DF-RKS Final Energy:   -76.41956309443960
    Total Energy =                        -76.4195630944395958
    Molecular point group: c1
  Basis Set: AUG-CC-PVDZ
    Blend: AUG-CC-PVDZ
  Basis Set: (AUG-CC-PVDZ AUX)
    Blend: AUG-CC-PVDZ-JKFIT
  @DF-RKS Final Energy:   -76.41983041111277
    Total Energy =                        -76.4198304111127840
  Basis Set: AUG-CC-PVDZ
    Blend: AUG-CC-PVDZ
  Basis Set: (AUG-CC-PVDZ AUX)
    Blend: AUG-CC-PVDZ-JKFIT
  @DF-RKS Final Energy: -1188.20557573541146
    Total Energy =                      -1188.2055757354114576
  Multiplicity = 1
  Basis Set: AUG-CC-PVDZ
    Blend: AUG-CC-PVDZ
  Basis Set: (AUG-CC-PVDZ AUX)
    Blend: AUG-CC-PVDZ-JKFIT
  @DF-RKS Final Energy: -1188.20527702356412
    Total Energy =                      -1188.2052770235641219
    Molecular point group: c1

    Geometry (in Angstrom), charge = 0, multiplicity = 1:

       Center              X                  Y                   Z               Mass
    ------------   -----------------  -----------------  -----------------  -----------------
         N           -0.750189209856    -1.503197607789     0.306099943911    14.003074004430
         C           -2.025128209856    -1.219714607789     0.724095943911    12.000000000000
         C           -2.300406209856     0.282186392211     1.063419943911    12.000000000000
         F           -3.592654209856     0.593017392211     0.681835943911    18.998403162730
         F           -2.233079209856     0.412737392211     2.431819943911    18.998403162730
         C           -1.315104209856     1.324845392211     0.430365943911    12.000000000000
         C            0.011802790144     0.816677392211     0.009592943911    12.000000000000
         C            0.998970790144     1.708195392211    -0.463224056089    12.000000000000
         C            2.263251790144     1.243914392211    -0.846863056089    12.000000000000
         C            2.562198790144    -0.141943607789    -0.786389056089    12.000000000000
         C            1.555549790144    -1.042255607789    -0.375495056089    12.000000000000
         C            0.282032790144    -0.581393607789     0.000321943911    12.000000000000
         S            4.128519790144    -0.837945607789    -1.220964056089    31.972071174400
         C            5.173603790144    -0.445171607789     0.204655943911    12.000000000000
         O           -2.851913209856    -2.114000607789     0.852850943911    15.994914619570
         O           -1.607319209856     2.517896392211     0.377601943911    15.994914619570
         H            3.005052790144     1.968239392211    -1.181625056089     1.007825032230
         H            0.755673790144     2.769845392211    -0.510740056089     1.007825032230
         H           -0.603758209856    -2.490736607789     0.149183943911     1.007825032230
         H            1.773003790144    -2.110360607789    -0.334772056089     1.007825032230
         H            5.367037790144     0.631688392211     0.224899943911     1.007825032230
         H            4.663383790144    -0.746106607789     1.125243943911     1.007825032230
         H            6.119525790144    -0.987192607789     0.114017943911     1.007825032230
         O           -2.559507009856    -0.011762207789    -2.386164456089    15.994914619570
         H           -3.206419009856    -0.720081207789    -2.410341456089     1.007825032230
         H           -3.019599009856     0.807852792211    -2.577945456089     1.007825032230

  Charge       = 0
  Multiplicity = 1
  Basis Set: AUG-CC-PVDZ
    Blend: AUG-CC-PVDZ
  Basis Set: (AUG-CC-PVDZ AUX)
    Blend: AUG-CC-PVDZ-JKFIT

    Orbital Energies [Eh]
    ---------------------

    Doubly Occupied:

       1A    -89.065334     2A    -24.874576     3A    -24.862994
       4A    -19.297239     5A    -19.288262     6A    -19.282607
       7A    -14.529276     8A    -10.503335     9A    -10.450151
      10A    -10.430096    11A    -10.399964    12A    -10.372387
      13A    -10.348571    14A    -10.344928    15A    -10.342939
      16A    -10.341456    17A    -10.337038    18A     -8.082822
      19A     -6.032673    20A     -6.028553    21A     -6.021638
      22A     -1.380197    23A     -1.321995    24A     -1.184252
      25A     -1.173448    26A     -1.129433    27A     -1.086316
      28A     -0.993435    29A     -0.931969    30A     -0.897380
      31A     -0.881442    32A     -0.860727    33A     -0.786855
      34A     -0.758757    35A     -0.745288    36A     -0.734424
      37A     -0.689413    38A     -0.671703    39A     -0.663215
      40A     -0.640648    41A     -0.636998    42A     -0.622678
      43A     -0.584368    44A     -0.573873    45A     -0.562394
      46A     -0.557453    47A     -0.550963    48A     -0.549205
      49A     -0.543792    50A     -0.533992    51A     -0.529882
      52A     -0.521617    53A     -0.511933    54A     -0.505647
      55A     -0.494851    56A     -0.490616    57A     -0.487607
      58A     -0.474456    59A     -0.467762    60A     -0.435090
      61A     -0.417131    62A     -0.414639    63A     -0.392396
      64A     -0.366126    65A     -0.362452    66A     -0.333993
      67A     -0.325482

  @DF-RKS Final Energy: -1264.63316643088956

   => Energetics <=

    Nuclear Repulsion Energy =           1335.4446716231182108
    One-Electron Energy =               -4390.5883125616119287
    Two-Electron Energy =                1886.5388599659468127
    DFT Exchange-Correlation Energy =     -96.0123911989227423
    Empirical Dispersion Energy =          -0.0159942594198947
    VV10 Nonlocal Energy =                  0.0000000000000000
    Total Energy =                      -1264.6331664308895597

  Dipole Moment: [D]
     X:     4.5013      Y:    -0.8470      Z:    -1.4056     Total:     4.7911

*** Psi4 exiting successfully. Buy a developer a beer!
