                               Psi4 1.3.2 release

  ==> Input File <==

--------------------------------------------------------------------------
molecule {
0 1
  N                 -0.8260030    -1.3282960    -0.0779940
  C                 -2.1092650    -1.0544570     0.3197650
  C                 -2.3948000     0.4430980     0.6653630
  F                 -3.6960120     0.7506790     0.3113310
  F                 -2.3114660     0.5636400     2.0338450
  C                 -1.4159460     1.4949620     0.0354070
  C                 -0.0748680     0.9990970    -0.3561590
  C                  0.9166740     1.8984060    -0.8047210
  C                  2.1915510     1.4433670    -1.1643410
  C                  2.4959700     0.0584930    -1.1092430
  C                  1.4871680    -0.8493330    -0.7206960
  C                  0.2051270    -0.3977250    -0.3635390
  S                  4.0705370    -0.6284060    -1.5292630
  C                  5.0499670    -0.3926990    -0.0252100
  O                 -2.9367190    -1.9487370     0.4345980
  O                 -1.7231300     2.6833150    -0.0299150
  H                  2.9370610     2.1736930    -1.4774200
  H                  0.6671740     2.9585660    -0.8554840
  H                 -0.6730600    -2.3132220    -0.2442190
  H                  1.7086540    -1.9167780    -0.6859390
  H                  5.1799690     0.6784470     0.1577010
  H                  4.5314840    -0.8522290     0.8222450
  H                  6.0275000    -0.8654740    -0.1593070
--
0 1
  O                 -2.8270378     0.1803588    -2.8632424
  H                 -3.6592208    -0.0051632    -2.4226414
  H                 -2.9302908     0.9923188    -3.3625644
}
memory 16GB
set_num_threads(8)
psi4_io.set_default_path("/scratch/Psi4-ligand")
set maxiter 500
set freeze_core True
set PROPERTIES_ORIGIN ["COM"]
e_dim= energy('wb97x-d/aug-cc-pVDZ',bsse_type='cp')

psi4.print_out('CP Energy = %10.6f' % (e_dim))
clean()
--------------------------------------------------------------------------

    Molecular point group: c1
  Charge       = 0
  Multiplicity = 1
  Basis Set: AUG-CC-PVDZ
    Blend: AUG-CC-PVDZ
  Basis Set: (AUG-CC-PVDZ AUX)
    Blend: AUG-CC-PVDZ-JKFIT
  @DF-RKS Final Energy:   -76.41950352893286
    Total Energy =                        -76.4195035289328644
    Molecular point group: c1
  Basis Set: AUG-CC-PVDZ
    Blend: AUG-CC-PVDZ
  Basis Set: (AUG-CC-PVDZ AUX)
    Blend: AUG-CC-PVDZ-JKFIT
  @DF-RKS Final Energy:   -76.41976837988453
    Total Energy =                        -76.4197683798845588
  Basis Set: AUG-CC-PVDZ
    Blend: AUG-CC-PVDZ
  Basis Set: (AUG-CC-PVDZ AUX)
    Blend: AUG-CC-PVDZ-JKFIT
  @DF-RKS Final Energy: -1188.20558604625671
    Total Energy =                      -1188.2055860462564851
  Multiplicity = 1
  Basis Set: AUG-CC-PVDZ
    Blend: AUG-CC-PVDZ
  Basis Set: (AUG-CC-PVDZ AUX)
    Blend: AUG-CC-PVDZ-JKFIT
  @DF-RKS Final Energy: -1188.20532316712411
    Total Energy =                      -1188.2053231671241065
    Molecular point group: c1

    Geometry (in Angstrom), charge = 0, multiplicity = 1:

       Center              X                  Y                   Z               Mass
    ------------   -----------------  -----------------  -----------------  -----------------
         N           -0.729493569585    -1.502561220806     0.287210227863    14.003074004430
         C           -2.012755569585    -1.228722220806     0.684969227863    12.000000000000
         C           -2.298290569585     0.268832779194     1.030567227863    12.000000000000
         F           -3.599502569585     0.576413779194     0.676535227863    18.998403162730
         F           -2.214956569585     0.389374779194     2.399049227863    18.998403162730
         C           -1.319436569585     1.320696779194     0.400611227863    12.000000000000
         C            0.021641430415     0.824831779194     0.009045227863    12.000000000000
         C            1.013183430415     1.724140779194    -0.439516772137    12.000000000000
         C            2.288060430415     1.269101779194    -0.799136772137    12.000000000000
         C            2.592479430415    -0.115772220806    -0.744038772137    12.000000000000
         C            1.583677430415    -1.023598220806    -0.355491772137    12.000000000000
         C            0.301636430415    -0.571990220806     0.001665227863    12.000000000000
         S            4.167046430415    -0.802671220806    -1.164058772137    31.972071174400
         C            5.146476430415    -0.566964220806     0.339994227863    12.000000000000
         O           -2.840209569585    -2.123002220806     0.799802227863    15.994914619570
         O           -1.626620569585     2.509049779194     0.335289227863    15.994914619570
         H            3.033570430415     1.999427779194    -1.112215772137     1.007825032230
         H            0.763683430415     2.784300779194    -0.490279772137     1.007825032230
         H           -0.576550569585    -2.487487220806     0.120985227863     1.007825032230
         H            1.805163430415    -2.091043220806    -0.320734772137     1.007825032230
         H            5.276478430415     0.504181779194     0.522905227863     1.007825032230
         H            4.627993430415    -1.026494220806     1.187449227863     1.007825032230
         H            6.124009430415    -1.039739220806     0.205897227863     1.007825032230
         O           -2.730528369585     0.006093579194    -2.498038172137    15.994914619570
         H           -3.562711369585    -0.179428420806    -2.057437172137     1.007825032230
         H           -2.833781369585     0.818053579194    -2.997360172137     1.007825032230

  Charge       = 0
  Multiplicity = 1
  Basis Set: AUG-CC-PVDZ
    Blend: AUG-CC-PVDZ
  Basis Set: (AUG-CC-PVDZ AUX)
    Blend: AUG-CC-PVDZ-JKFIT

    Orbital Energies [Eh]
    ---------------------

    Doubly Occupied:

       1A    -89.065926     2A    -24.876958     3A    -24.868017
       4A    -19.299693     5A    -19.284757     6A    -19.284438
       7A    -14.530859     8A    -10.506027     9A    -10.451699
      10A    -10.432588    11A    -10.402018    12A    -10.373808
      13A    -10.351248    14A    -10.347101    15A    -10.344725
      16A    -10.342280    17A    -10.339034    18A     -8.083412
      19A     -6.033278    20A     -6.029155    21A     -6.022197
      22A     -1.383801    23A     -1.325626    24A     -1.186204
      25A     -1.175812    26A     -1.125909    27A     -1.088216
      28A     -0.995234    29A     -0.933599    30A     -0.899391
      31A     -0.883522    32A     -0.862634    33A     -0.788496
      34A     -0.760739    35A     -0.747341    36A     -0.736144
      37A     -0.692001    38A     -0.673685    39A     -0.666425
      40A     -0.639683    41A     -0.637532    42A     -0.624882
      43A     -0.586355    44A     -0.575902    45A     -0.564510
      46A     -0.558937    47A     -0.552885    48A     -0.551153
      49A     -0.546109    50A     -0.536560    51A     -0.530380
      52A     -0.523886    53A     -0.515517    54A     -0.507914
      55A     -0.497486    56A     -0.490843    57A     -0.485668
      58A     -0.476282    59A     -0.469758    60A     -0.436619
      61A     -0.416044    62A     -0.413973    63A     -0.394501
      64A     -0.368005    65A     -0.362934    66A     -0.335126
      67A     -0.328226

  @DF-RKS Final Energy: -1264.63260975814160

   => Energetics <=

    Nuclear Repulsion Energy =           1331.6145246701007636
    One-Electron Energy =               -4382.7146073166823044
    Two-Electron Energy =                1882.4951042586317271
    DFT Exchange-Correlation Energy =     -96.0118095642097558
    Empirical Dispersion Energy =          -0.0158218059821348
    VV10 Nonlocal Energy =                  0.0000000000000000
    Total Energy =                      -1264.6326097581415979

  Dipole Moment: [D]
     X:     4.8309      Y:    -0.1675      Z:    -0.9344     Total:     4.9233

*** Psi4 exiting successfully. Buy a developer a beer!
