                               Psi4 1.3.2 release

  ==> Input File <==

--------------------------------------------------------------------------
molecule {
0 1
  N                 -0.8387180    -1.4162130     0.0458400
  C                 -2.1154550    -1.1700410     0.4831380
  C                 -2.4438040     0.3309240     0.7680960
  F                 -3.7510470     0.5799800     0.4010040
  F                 -2.3528700     0.5214280     2.1279610
  C                 -1.5104670     1.3861230     0.0760970
  C                 -0.1641870     0.9190250    -0.3322220
  C                  0.7846930     1.8303990    -0.8440260
  C                  2.0635470     1.4015020    -1.2209700
  C                  2.4102440     0.0286610    -1.1285480
  C                  1.4388530    -0.8945880    -0.6844750
  C                  0.1548630    -0.4682690    -0.3040470
  S                  3.9942670    -0.6248470    -1.5665020
  C                  5.0031730    -0.3146060    -0.0954460
  O                 -2.8881790    -2.0925920     0.7016620
  O                 -1.8618720     2.5594270    -0.0437570
  H                  2.7790970     2.1421990    -1.5770730
  H                  0.5013350     2.8801220    -0.9241300
  H                 -0.6568400    -2.4034510    -0.0704010
  H                  1.6931890    -1.9532600    -0.6192490
  H                  5.0586660     0.7629650     0.0871740
  H                  4.5495160    -0.8123620     0.7672370
  H                  6.0085440    -0.7123100    -0.2628960
--
0 1
  O                 -2.5192290     0.5113240    -2.3998970
  H                 -2.8819980     1.3680580    -2.1644410
  H                 -1.9320900     0.6304510    -3.1477700
}
memory 16GB
set_num_threads(8)
psi4_io.set_default_path("/scratch/Psi4-ligand")
set maxiter 500
set freeze_core True
set PROPERTIES_ORIGIN ["COM"]
e_dim= energy('wb97x-d/aug-cc-pVDZ',bsse_type='cp')

psi4.print_out('CP Energy = %10.6f' % (e_dim))
clean()
--------------------------------------------------------------------------

    Molecular point group: c1
  Charge       = 0
  Multiplicity = 1
  Basis Set: AUG-CC-PVDZ
    Blend: AUG-CC-PVDZ
  Basis Set: (AUG-CC-PVDZ AUX)
    Blend: AUG-CC-PVDZ-JKFIT
  @DF-RKS Final Energy:   -76.41947838400425
    Total Energy =                        -76.4194783840042646
    Molecular point group: c1
  Basis Set: AUG-CC-PVDZ
    Blend: AUG-CC-PVDZ
  Basis Set: (AUG-CC-PVDZ AUX)
    Blend: AUG-CC-PVDZ-JKFIT
  @DF-RKS Final Energy:   -76.41998505577851
    Total Energy =                        -76.4199850557784970
  Basis Set: AUG-CC-PVDZ
    Blend: AUG-CC-PVDZ
  Basis Set: (AUG-CC-PVDZ AUX)
    Blend: AUG-CC-PVDZ-JKFIT
  @DF-RKS Final Energy: -1188.20577776512550
    Total Energy =                      -1188.2057777651255037
  Multiplicity = 1
  Basis Set: AUG-CC-PVDZ
    Blend: AUG-CC-PVDZ
  Basis Set: (AUG-CC-PVDZ AUX)
    Blend: AUG-CC-PVDZ-JKFIT
  @DF-RKS Final Energy: -1188.20524720746266
    Total Energy =                      -1188.2052472074626621
    Molecular point group: c1

    Geometry (in Angstrom), charge = 0, multiplicity = 1:

       Center              X                  Y                   Z               Mass
    ------------   -----------------  -----------------  -----------------  -----------------
         N           -0.710070136254    -1.551327056596     0.339378166127    14.003074004430
         C           -1.986807136254    -1.305155056596     0.776676166127    12.000000000000
         C           -2.315156136254     0.195809943404     1.061634166127    12.000000000000
         F           -3.622399136254     0.444865943404     0.694542166127    18.998403162730
         F           -2.224222136254     0.386313943404     2.421499166127    18.998403162730
         C           -1.381819136254     1.251008943404     0.369635166127    12.000000000000
         C           -0.035539136254     0.783910943404    -0.038683833873    12.000000000000
         C            0.913340863746     1.695284943404    -0.550487833873    12.000000000000
         C            2.192194863746     1.266387943404    -0.927431833873    12.000000000000
         C            2.538891863746    -0.106453056596    -0.835009833873    12.000000000000
         C            1.567500863746    -1.029702056596    -0.390936833873    12.000000000000
         C            0.283510863746    -0.603383056596    -0.010508833873    12.000000000000
         S            4.122914863746    -0.759961056596    -1.272963833873    31.972071174400
         C            5.131820863746    -0.449720056596     0.198092166127    12.000000000000
         O           -2.759531136254    -2.227706056596     0.995200166127    15.994914619570
         O           -1.733224136254     2.424312943404     0.249781166127    15.994914619570
         H            2.907744863746     2.007084943404    -1.283534833873     1.007825032230
         H            0.629982863746     2.745007943404    -0.630591833873     1.007825032230
         H           -0.528192136254    -2.538565056596     0.223137166127     1.007825032230
         H            1.821836863746    -2.088374056596    -0.325710833873     1.007825032230
         H            5.187313863746     0.627850943404     0.380712166127     1.007825032230
         H            4.678163863746    -0.947476056596     1.060775166127     1.007825032230
         H            6.137191863746    -0.847424056596     0.030642166127     1.007825032230
         O           -2.390581136254     0.376209943404    -2.106358833873    15.994914619570
         H           -2.753350136254     1.232943943404    -1.870902833873     1.007825032230
         H           -1.803442136254     0.495336943404    -2.854231833873     1.007825032230

  Charge       = 0
  Multiplicity = 1
  Basis Set: AUG-CC-PVDZ
    Blend: AUG-CC-PVDZ
  Basis Set: (AUG-CC-PVDZ AUX)
    Blend: AUG-CC-PVDZ-JKFIT

    Orbital Energies [Eh]
    ---------------------

    Doubly Occupied:

       1A    -89.067551     2A    -24.875267     3A    -24.863820
       4A    -19.300640     5A    -19.291213     6A    -19.280881
       7A    -14.529167     8A    -10.503851     9A    -10.448695
      10A    -10.434817    11A    -10.402486    12A    -10.375180
      13A    -10.352010    14A    -10.348584    15A    -10.346090
      16A    -10.343657    17A    -10.340793    18A     -8.085024
      19A     -6.034890    20A     -6.030771    21A     -6.023814
      22A     -1.381272    23A     -1.323133    24A     -1.183200
      25A     -1.177561    26A     -1.133493    27A     -1.086678
      28A     -0.996433    29A     -0.934694    30A     -0.899052
      31A     -0.884475    32A     -0.862671    33A     -0.789140
      34A     -0.760718    35A     -0.746954    36A     -0.736649
      37A     -0.691651    38A     -0.673785    39A     -0.664616
      40A     -0.646323    41A     -0.638178    42A     -0.624297
      43A     -0.587415    44A     -0.577013    45A     -0.562299
      46A     -0.558180    47A     -0.553843    48A     -0.552127
      49A     -0.545428    50A     -0.535436    51A     -0.531574
      52A     -0.523868    53A     -0.512892    54A     -0.508937
      55A     -0.497517    56A     -0.492475    57A     -0.491132
      58A     -0.476824    59A     -0.470388    60A     -0.436994
      61A     -0.419372    62A     -0.416901    63A     -0.392785
      64A     -0.367960    65A     -0.363982    66A     -0.335522
      67A     -0.329433

  @DF-RKS Final Energy: -1264.63332625469320

   => Energetics <=

    Nuclear Repulsion Energy =           1347.3242822079719190
    One-Electron Energy =               -4414.0625236175374084
    Two-Electron Energy =                1898.1423035002796951
    DFT Exchange-Correlation Energy =     -96.0205295020174390
    Empirical Dispersion Energy =          -0.0168588433902011
    VV10 Nonlocal Energy =                  0.0000000000000000
    Total Energy =                      -1264.6333262546936567

  Dipole Moment: [D]
     X:     6.3726      Y:     0.3551      Z:    -1.7444     Total:     6.6166

*** Psi4 exiting successfully. Buy a developer a beer!
