                               Psi4 1.3.2 release

  ==> Input File <==

--------------------------------------------------------------------------
molecule {
0 1
  N                 -0.8329220    -1.4316820     0.0850080
  C                 -2.1158040    -1.1558080     0.4843320
  C                 -2.4289050     0.3591460     0.7054530
  F                 -3.7555890     0.5940930     0.3944060
  F                 -2.2736550     0.6195540     2.0481740
  C                 -1.5199820     1.3601920    -0.0901970
  C                 -0.1640620     0.8757330    -0.4452730
  C                  0.7840340     1.7520530    -1.0162350
  C                  2.0710080     1.3050290    -1.3425650
  C                  2.4281110    -0.0524070    -1.1340790
  C                  1.4580920    -0.9467950    -0.6323440
  C                  0.1650140    -0.5031110    -0.3071010
  S                  4.0263480    -0.7214740    -1.4867930
  C                  4.9860630    -0.3162710    -0.0061480
  O                 -2.9120640    -2.0610510     0.6968400
  O                 -1.8772710     2.5202120    -0.2916330
  H                  2.7862340     2.0217350    -1.7452190
  H                  0.4932850     2.7892110    -1.1843840
  H                 -0.6535010    -2.4233640     0.0118350
  H                  1.7211530    -1.9936930    -0.4758020
  H                  5.0542680     0.7713970     0.0950450
  H                  4.4911080    -0.7384740     0.8741880
  H                  5.9893040    -0.7414380    -0.1033230
--
0 1
  O                 -2.4802802     0.2428501    -2.0667302
  H                 -3.2122782    -0.3727079    -2.1443202
  H                 -2.7581902     1.0734601    -2.4589802
}
memory 16GB
set_num_threads(8)
psi4_io.set_default_path("/scratch/Psi4-ligand")
set maxiter 500
set freeze_core True
set PROPERTIES_ORIGIN ["COM"]
e_dim= energy('wb97x-d/aug-cc-pVDZ',bsse_type='cp')

psi4.print_out('CP Energy = %10.6f' % (e_dim))
clean()
--------------------------------------------------------------------------

    Molecular point group: c1
  Charge       = 0
  Multiplicity = 1
  Basis Set: AUG-CC-PVDZ
    Blend: AUG-CC-PVDZ
  Basis Set: (AUG-CC-PVDZ AUX)
    Blend: AUG-CC-PVDZ-JKFIT
  @DF-RKS Final Energy:   -76.41957093207705
    Total Energy =                        -76.4195709320770504
    Molecular point group: c1
  Basis Set: AUG-CC-PVDZ
    Blend: AUG-CC-PVDZ
  Basis Set: (AUG-CC-PVDZ AUX)
    Blend: AUG-CC-PVDZ-JKFIT
  @DF-RKS Final Energy:   -76.42032016839046
    Total Energy =                        -76.4203201683904609
  Basis Set: AUG-CC-PVDZ
    Blend: AUG-CC-PVDZ
  Basis Set: (AUG-CC-PVDZ AUX)
    Blend: AUG-CC-PVDZ-JKFIT
  @DF-RKS Final Energy: -1188.20555678595792
    Total Energy =                      -1188.2055567859579241
  Multiplicity = 1
  Basis Set: AUG-CC-PVDZ
    Blend: AUG-CC-PVDZ
  Basis Set: (AUG-CC-PVDZ AUX)
    Blend: AUG-CC-PVDZ-JKFIT
  @DF-RKS Final Energy: -1188.20482864161659
    Total Energy =                      -1188.2048286416165865
    Molecular point group: c1

    Geometry (in Angstrom), charge = 0, multiplicity = 1:

       Center              X                  Y                   Z               Mass
    ------------   -----------------  -----------------  -----------------  -----------------
         N           -0.711200553585    -1.522451400226     0.388091160956    14.003074004430
         C           -1.994082553585    -1.246577400226     0.787415160956    12.000000000000
         C           -2.307183553585     0.268376599774     1.008536160956    12.000000000000
         F           -3.633867553585     0.503323599774     0.697489160956    18.998403162730
         F           -2.151933553585     0.528784599774     2.351257160956    18.998403162730
         C           -1.398260553585     1.269422599774     0.212886160956    12.000000000000
         C           -0.042340553585     0.784963599774    -0.142189839044    12.000000000000
         C            0.905755446415     1.661283599774    -0.713151839044    12.000000000000
         C            2.192729446415     1.214259599774    -1.039481839044    12.000000000000
         C            2.549832446415    -0.143176400226    -0.830995839044    12.000000000000
         C            1.579813446415    -1.037564400226    -0.329260839044    12.000000000000
         C            0.286735446415    -0.593880400226    -0.004017839044    12.000000000000
         S            4.148069446415    -0.812243400226    -1.183709839044    31.972071174400
         C            5.107784446415    -0.407040400226     0.296935160956    12.000000000000
         O           -2.790342553585    -2.151820400226     0.999923160956    15.994914619570
         O           -1.755549553585     2.429442599774     0.011450160956    15.994914619570
         H            2.907955446415     1.930965599774    -1.442135839044     1.007825032230
         H            0.615006446415     2.698441599774    -0.881300839044     1.007825032230
         H           -0.531779553585    -2.514133400226     0.314918160956     1.007825032230
         H            1.842874446415    -2.084462400226    -0.172718839044     1.007825032230
         H            5.175989446415     0.680627599774     0.398128160956     1.007825032230
         H            4.612829446415    -0.829243400226     1.177271160956     1.007825032230
         H            6.111025446415    -0.832207400226     0.199760160956     1.007825032230
         O           -2.358558753585     0.152080699774    -1.763647039044    15.994914619570
         H           -3.090556753585    -0.463477300226    -1.841237039044     1.007825032230
         H           -2.636468753585     0.982690699774    -2.155897039044     1.007825032230

  Charge       = 0
  Multiplicity = 1
  Basis Set: AUG-CC-PVDZ
    Blend: AUG-CC-PVDZ
  Basis Set: (AUG-CC-PVDZ AUX)
    Blend: AUG-CC-PVDZ-JKFIT

    Orbital Energies [Eh]
    ---------------------

    Doubly Occupied:

       1A    -89.062637     2A    -24.872039     3A    -24.860030
       4A    -19.302816     5A    -19.289446     6A    -19.281423
       7A    -14.527166     8A    -10.499465     9A    -10.448251
      10A    -10.428391    11A    -10.396031    12A    -10.368602
      13A    -10.345692    14A    -10.341867    15A    -10.340659
      16A    -10.339346    17A    -10.334969    18A     -8.080104
      19A     -6.029959    20A     -6.025857    21A     -6.018905
      22A     -1.377663    23A     -1.319316    24A     -1.183335
      25A     -1.168755    26A     -1.146579    27A     -1.083968
      28A     -0.990636    29A     -0.929143    30A     -0.894596
      31A     -0.878975    32A     -0.858030    33A     -0.784114
      34A     -0.756172    35A     -0.742504    36A     -0.731780
      37A     -0.687358    38A     -0.668465    39A     -0.661659
      40A     -0.658174    41A     -0.634449    42A     -0.620377
      43A     -0.581335    44A     -0.571332    45A     -0.563292
      46A     -0.556607    47A     -0.550154    48A     -0.547392
      49A     -0.540905    50A     -0.531898    51A     -0.527335
      52A     -0.520554    53A     -0.512890    54A     -0.511075
      55A     -0.496692    56A     -0.492236    57A     -0.482555
      58A     -0.472881    59A     -0.465121    60A     -0.433198
      61A     -0.427337    62A     -0.412231    63A     -0.390038
      64A     -0.362350    65A     -0.357576    66A     -0.330959
      67A     -0.325167

  @DF-RKS Final Energy: -1264.63297085238855

   => Energetics <=

    Nuclear Repulsion Energy =           1359.3370847026676529
    One-Electron Energy =               -4438.5226520270180117
    Two-Electron Energy =                1910.6018269928215432
    DFT Exchange-Correlation Energy =     -96.0320143676709392
    Empirical Dispersion Energy =          -0.0172161531890220
    VV10 Nonlocal Energy =                  0.0000000000000000
    Total Energy =                      -1264.6329708523887803

  Dipole Moment: [D]
     X:     4.1522      Y:    -0.7062      Z:    -1.8776     Total:     4.6114

*** Psi4 exiting successfully. Buy a developer a beer!
