                               Psi4 1.3.2 release

  ==> Input File <==

--------------------------------------------------------------------------
molecule {
0 1
  N                 -0.8329220    -1.4316820     0.0850080
  C                 -2.1158040    -1.1558080     0.4843320
  C                 -2.4289050     0.3591460     0.7054530
  F                 -3.7555890     0.5940930     0.3944060
  F                 -2.2736550     0.6195540     2.0481740
  C                 -1.5199820     1.3601920    -0.0901970
  C                 -0.1640620     0.8757330    -0.4452730
  C                  0.7840340     1.7520530    -1.0162350
  C                  2.0710080     1.3050290    -1.3425650
  C                  2.4281110    -0.0524070    -1.1340790
  C                  1.4580920    -0.9467950    -0.6323440
  C                  0.1650140    -0.5031110    -0.3071010
  S                  4.0263480    -0.7214740    -1.4867930
  C                  4.9860630    -0.3162710    -0.0061480
  O                 -2.9120640    -2.0610510     0.6968400
  O                 -1.8772710     2.5202120    -0.2916330
  H                  2.7862340     2.0217350    -1.7452190
  H                  0.4932850     2.7892110    -1.1843840
  H                 -0.6535010    -2.4233640     0.0118350
  H                  1.7211530    -1.9936930    -0.4758020
  H                  5.0542680     0.7713970     0.0950450
  H                  4.4911080    -0.7384740     0.8741880
  H                  5.9893040    -0.7414380    -0.1033230
--
0 1
  O                 -2.6936798    -0.0054481    -2.5059598
  H                 -3.4256778    -0.6210061    -2.5835498
  H                 -2.9715898     0.8251619    -2.8982098
}
memory 16GB
set_num_threads(8)
psi4_io.set_default_path("/scratch/Psi4-ligand")
set maxiter 500
set freeze_core True
set PROPERTIES_ORIGIN ["COM"]
e_dim= energy('wb97x-d/aug-cc-pVDZ',bsse_type='cp')

psi4.print_out('CP Energy = %10.6f' % (e_dim))
clean()
--------------------------------------------------------------------------

    Molecular point group: c1
  Charge       = 0
  Multiplicity = 1
  Basis Set: AUG-CC-PVDZ
    Blend: AUG-CC-PVDZ
  Basis Set: (AUG-CC-PVDZ AUX)
    Blend: AUG-CC-PVDZ-JKFIT
  @DF-RKS Final Energy:   -76.41957093204307
    Total Energy =                        -76.4195709320430581
    Molecular point group: c1
  Basis Set: AUG-CC-PVDZ
    Blend: AUG-CC-PVDZ
  Basis Set: (AUG-CC-PVDZ AUX)
    Blend: AUG-CC-PVDZ-JKFIT
  @DF-RKS Final Energy:   -76.41995669320831
    Total Energy =                        -76.4199566932083059
  Basis Set: AUG-CC-PVDZ
    Blend: AUG-CC-PVDZ
  Basis Set: (AUG-CC-PVDZ AUX)
    Blend: AUG-CC-PVDZ-JKFIT
  @DF-RKS Final Energy: -1188.20515720437447
    Total Energy =                      -1188.2051572043742453
  Multiplicity = 1
  Basis Set: AUG-CC-PVDZ
    Blend: AUG-CC-PVDZ
  Basis Set: (AUG-CC-PVDZ AUX)
    Blend: AUG-CC-PVDZ-JKFIT
  @DF-RKS Final Energy: -1188.20483201855882
    Total Energy =                      -1188.2048320185588182
    Molecular point group: c1

    Geometry (in Angstrom), charge = 0, multiplicity = 1:

       Center              X                  Y                   Z               Mass
    ------------   -----------------  -----------------  -----------------  -----------------
         N           -0.696476231876    -1.505319116114     0.418397487372    14.003074004430
         C           -1.979358231876    -1.229445116114     0.817721487372    12.000000000000
         C           -2.292459231876     0.285508883886     1.038842487372    12.000000000000
         F           -3.619143231876     0.520455883886     0.727795487372    18.998403162730
         F           -2.137209231876     0.545916883886     2.381563487372    18.998403162730
         C           -1.383536231876     1.286554883886     0.243192487372    12.000000000000
         C           -0.027616231876     0.802095883886    -0.111883512628    12.000000000000
         C            0.920479768124     1.678415883886    -0.682845512628    12.000000000000
         C            2.207453768124     1.231391883886    -1.009175512628    12.000000000000
         C            2.564556768124    -0.126044116114    -0.800689512628    12.000000000000
         C            1.594537768124    -1.020432116114    -0.298954512628    12.000000000000
         C            0.301459768124    -0.576748116114     0.026288487372    12.000000000000
         S            4.162793768124    -0.795111116114    -1.153403512628    31.972071174400
         C            5.122508768124    -0.389908116114     0.327241487372    12.000000000000
         O           -2.775618231876    -2.134688116114     1.030229487372    15.994914619570
         O           -1.740825231876     2.446574883886     0.041756487372    15.994914619570
         H            2.922679768124     1.948097883886    -1.411829512628     1.007825032230
         H            0.629730768124     2.715573883886    -0.850994512628     1.007825032230
         H           -0.517055231876    -2.497001116114     0.345224487372     1.007825032230
         H            1.857598768124    -2.067330116114    -0.142412512628     1.007825032230
         H            5.190713768124     0.697759883886     0.428434487372     1.007825032230
         H            4.627553768124    -0.812111116114     1.207577487372     1.007825032230
         H            6.125749768124    -0.815075116114     0.230066487372     1.007825032230
         O           -2.557234031876    -0.079085216114    -2.172570312628    15.994914619570
         H           -3.289232031876    -0.694643216114    -2.250160312628     1.007825032230
         H           -2.835144031876     0.751524783886    -2.564820312628     1.007825032230

  Charge       = 0
  Multiplicity = 1
  Basis Set: AUG-CC-PVDZ
    Blend: AUG-CC-PVDZ
  Basis Set: (AUG-CC-PVDZ AUX)
    Blend: AUG-CC-PVDZ-JKFIT

    Orbital Energies [Eh]
    ---------------------

    Doubly Occupied:

       1A    -89.064041     2A    -24.873659     3A    -24.859894
       4A    -19.295744     5A    -19.291550     6A    -19.281094
       7A    -14.527585     8A    -10.501212     9A    -10.448329
      10A    -10.429488    11A    -10.398738    12A    -10.371048
      13A    -10.348039    14A    -10.344361    15A    -10.342220
      16A    -10.340632    17A    -10.336610    18A     -8.081521
      19A     -6.031379    20A     -6.027276    21A     -6.020308
      22A     -1.378457    23A     -1.319444    24A     -1.182780
      25A     -1.171466    26A     -1.133023    27A     -1.084747
      28A     -0.992503    29A     -0.931007    30A     -0.896071
      31A     -0.880670    32A     -0.859432    33A     -0.785509
      34A     -0.757456    35A     -0.743795    36A     -0.733034
      37A     -0.688348    38A     -0.669562    39A     -0.661249
      40A     -0.644063    41A     -0.635468    42A     -0.621448
      43A     -0.583414    44A     -0.573002    45A     -0.561613
      46A     -0.556009    47A     -0.550475    48A     -0.548339
      49A     -0.541122    50A     -0.532783    51A     -0.528351
      52A     -0.521117    53A     -0.509567    54A     -0.505521
      55A     -0.495312    56A     -0.492926    57A     -0.485804
      58A     -0.473520    59A     -0.466441    60A     -0.434059
      61A     -0.419802    62A     -0.413570    63A     -0.390844
      64A     -0.364565    65A     -0.359876    66A     -0.332231
      67A     -0.326605

  @DF-RKS Final Energy: -1264.63408808335703

   => Energetics <=

    Nuclear Repulsion Energy =           1342.3483989261826537
    One-Electron Energy =               -4404.5248244976501155
    Two-Electron Energy =                1893.5719773507273658
    DFT Exchange-Correlation Energy =     -96.0132608899912725
    Empirical Dispersion Energy =          -0.0163789726257266
    VV10 Nonlocal Energy =                  0.0000000000000000
    Total Energy =                      -1264.6340880833570282

  Dipole Moment: [D]
     X:     4.3887      Y:    -0.6748      Z:    -1.6986     Total:     4.7541

*** Psi4 exiting successfully. Buy a developer a beer!
