                               Psi4 1.3.2 release

  ==> Input File <==

--------------------------------------------------------------------------
molecule {
0 1
  N                 -0.8387180    -1.4162130     0.0458400
  C                 -2.1154550    -1.1700410     0.4831380
  C                 -2.4438040     0.3309240     0.7680960
  F                 -3.7510470     0.5799800     0.4010040
  F                 -2.3528700     0.5214280     2.1279610
  C                 -1.5104670     1.3861230     0.0760970
  C                 -0.1641870     0.9190250    -0.3322220
  C                  0.7846930     1.8303990    -0.8440260
  C                  2.0635470     1.4015020    -1.2209700
  C                  2.4102440     0.0286610    -1.1285480
  C                  1.4388530    -0.8945880    -0.6844750
  C                  0.1548630    -0.4682690    -0.3040470
  S                  3.9942670    -0.6248470    -1.5665020
  C                  5.0031730    -0.3146060    -0.0954460
  O                 -2.8881790    -2.0925920     0.7016620
  O                 -1.8618720     2.5594270    -0.0437570
  H                  2.7790970     2.1421990    -1.5770730
  H                  0.5013350     2.8801220    -0.9241300
  H                 -0.6568400    -2.4034510    -0.0704010
  H                  1.6931890    -1.9532600    -0.6192490
  H                  5.0586660     0.7629650     0.0871740
  H                  4.5495160    -0.8123620     0.7672370
  H                  6.0085440    -0.7123100    -0.2628960
--
0 1
  O                 -2.6563821     0.5095175    -2.6239508
  H                 -3.0191511     1.3662515    -2.3884948
  H                 -2.0692431     0.6286445    -3.3718238
}
memory 16GB
set_num_threads(8)
psi4_io.set_default_path("/scratch/Psi4-ligand")
set maxiter 500
set freeze_core True
set PROPERTIES_ORIGIN ["COM"]
e_dim= energy('wb97x-d/aug-cc-pVDZ',bsse_type='cp')

psi4.print_out('CP Energy = %10.6f' % (e_dim))
clean()
--------------------------------------------------------------------------

    Molecular point group: c1
  Charge       = 0
  Multiplicity = 1
  Basis Set: AUG-CC-PVDZ
    Blend: AUG-CC-PVDZ
  Basis Set: (AUG-CC-PVDZ AUX)
    Blend: AUG-CC-PVDZ-JKFIT
  @DF-RKS Final Energy:   -76.41947838418363
    Total Energy =                        -76.4194783841836340
    Molecular point group: c1
  Basis Set: AUG-CC-PVDZ
    Blend: AUG-CC-PVDZ
  Basis Set: (AUG-CC-PVDZ AUX)
    Blend: AUG-CC-PVDZ-JKFIT
  @DF-RKS Final Energy:   -76.41984385081497
    Total Energy =                        -76.4198438508149565
  Basis Set: AUG-CC-PVDZ
    Blend: AUG-CC-PVDZ
  Basis Set: (AUG-CC-PVDZ AUX)
    Blend: AUG-CC-PVDZ-JKFIT
  @DF-RKS Final Energy: -1188.20565418011938
    Total Energy =                      -1188.2056541801193816
  Multiplicity = 1
  Basis Set: AUG-CC-PVDZ
    Blend: AUG-CC-PVDZ
  Basis Set: (AUG-CC-PVDZ AUX)
    Blend: AUG-CC-PVDZ-JKFIT
  @DF-RKS Final Energy: -1188.20524915133296
    Total Energy =                      -1188.2052491513329642
    Molecular point group: c1

    Geometry (in Angstrom), charge = 0, multiplicity = 1:

       Center              X                  Y                   Z               Mass
    ------------   -----------------  -----------------  -----------------  -----------------
         N           -0.700606733474    -1.551202410218     0.354837615120    14.003074004430
         C           -1.977343733474    -1.305030410218     0.792135615120    12.000000000000
         C           -2.305692733474     0.195934589782     1.077093615120    12.000000000000
         F           -3.612935733474     0.444990589782     0.710001615120    18.998403162730
         F           -2.214758733474     0.386438589782     2.436958615120    18.998403162730
         C           -1.372355733474     1.251133589782     0.385094615120    12.000000000000
         C           -0.026075733474     0.784035589782    -0.023224384880    12.000000000000
         C            0.922804266526     1.695409589782    -0.535028384880    12.000000000000
         C            2.201658266526     1.266512589782    -0.911972384880    12.000000000000
         C            2.548355266526    -0.106328410218    -0.819550384880    12.000000000000
         C            1.576964266526    -1.029577410218    -0.375477384880    12.000000000000
         C            0.292974266526    -0.603258410218     0.004950615120    12.000000000000
         S            4.132378266526    -0.759836410218    -1.257504384880    31.972071174400
         C            5.141284266526    -0.449595410218     0.213551615120    12.000000000000
         O           -2.750067733474    -2.227581410218     1.010659615120    15.994914619570
         O           -1.723760733474     2.424437589782     0.265240615120    15.994914619570
         H            2.917208266526     2.007209589782    -1.268075384880     1.007825032230
         H            0.639446266526     2.745132589782    -0.615132384880     1.007825032230
         H           -0.518728733474    -2.538440410218     0.238596615120     1.007825032230
         H            1.831300266526    -2.088249410218    -0.310251384880     1.007825032230
         H            5.196777266526     0.627975589782     0.396171615120     1.007825032230
         H            4.687627266526    -0.947351410218     1.076234615120     1.007825032230
         H            6.146655266526    -0.847299410218     0.046101615120     1.007825032230
         O           -2.518270833474     0.374528089782    -2.314953184880    15.994914619570
         H           -2.881039833474     1.231262089782    -2.079497184880     1.007825032230
         H           -1.931131833474     0.493655089782    -3.062826184880     1.007825032230

  Charge       = 0
  Multiplicity = 1
  Basis Set: AUG-CC-PVDZ
    Blend: AUG-CC-PVDZ
  Basis Set: (AUG-CC-PVDZ AUX)
    Blend: AUG-CC-PVDZ-JKFIT

    Orbital Energies [Eh]
    ---------------------

    Doubly Occupied:

       1A    -89.067876     2A    -24.875521     3A    -24.863751
       4A    -19.301123     5A    -19.287512     6A    -19.281572
       7A    -14.529947     8A    -10.504252     9A    -10.449272
      10A    -10.434327    11A    -10.403313    12A    -10.375790
      13A    -10.352535    14A    -10.349125    15A    -10.346489
      16A    -10.343945    17A    -10.341101    18A     -8.085353
      19A     -6.035221    20A     -6.031098    21A     -6.024140
      22A     -1.381412    23A     -1.323158    24A     -1.183863
      25A     -1.177131    26A     -1.129022    27A     -1.087468
      28A     -0.996903    29A     -0.935110    30A     -0.899494
      31A     -0.884917    32A     -0.863053    33A     -0.789475
      34A     -0.761218    35A     -0.747400    36A     -0.736933
      37A     -0.691866    38A     -0.673937    39A     -0.664376
      40A     -0.641923    41A     -0.638648    42A     -0.624707
      43A     -0.587708    44A     -0.577201    45A     -0.562634
      46A     -0.558535    47A     -0.554158    48A     -0.552135
      49A     -0.545450    50A     -0.535650    51A     -0.531835
      52A     -0.524084    53A     -0.512806    54A     -0.508337
      55A     -0.497499    56A     -0.491406    57A     -0.488071
      58A     -0.477043    59A     -0.470668    60A     -0.437344
      61A     -0.417250    62A     -0.416329    63A     -0.393150
      64A     -0.368223    65A     -0.364537    66A     -0.336026
      67A     -0.329862

  @DF-RKS Final Energy: -1264.63265733091794

   => Energetics <=

    Nuclear Repulsion Energy =           1339.1237099862341893
    One-Electron Energy =               -4397.6668590288600171
    Two-Electron Energy =                1889.9419648315661107
    DFT Exchange-Correlation Energy =     -96.0151171554498859
    Empirical Dispersion Energy =          -0.0163559644082720
    VV10 Nonlocal Energy =                  0.0000000000000000
    Total Energy =                      -1264.6326573309179366

  Dipole Moment: [D]
     X:     6.4438      Y:     0.3946      Z:    -1.6969     Total:     6.6751

*** Psi4 exiting successfully. Buy a developer a beer!
