                               Psi4 1.3.2 release

  ==> Input File <==

--------------------------------------------------------------------------
molecule {
0 1
  N                 -0.8428290    -1.4083820     0.0066210
  C                 -2.1332900    -1.1277960     0.3798720
  C                 -2.4292590     0.3838470     0.6455610
  F                 -3.7509640     0.6635760     0.3443400
  F                 -2.2868720     0.5840850     2.0003210
  C                 -1.4867430     1.4036230    -0.0816350
  C                 -0.1354400     0.9075720    -0.4373280
  C                  0.8340730     1.7890790    -0.9624210
  C                  2.1194540     1.3351410    -1.2846030
  C                  2.4560690    -0.0330230    -1.1146520
  C                  1.4670190    -0.9296050    -0.6545140
  C                  0.1734730    -0.4800210    -0.3372240
  S                  4.0482530    -0.7136320    -1.4755480
  C                  5.0229460    -0.3209240    -0.0008380
  O                 -2.9506990    -2.0270760     0.5335290
  O                 -1.8231240     2.5749750    -0.2454090
  H                  2.8479870     2.0541620    -1.6586360
  H                  0.5613700     2.8361600    -1.0959240
  H                 -0.6743700    -2.3995180    -0.0952840
  H                  1.7145800    -1.9843230    -0.5271240
  H                  5.0905510     0.7655620     0.1114950
  H                  4.5393410    -0.7545560     0.8800610
  H                  6.0261560    -0.7422870    -0.1142930
--
0 1
  O                 -2.7295180    -0.0239930    -2.2017810
  H                 -3.4269050    -0.6832880    -2.2295540
  H                 -3.0818420     0.7845820    -2.5797220
}
memory 16GB
set_num_threads(8)
psi4_io.set_default_path("/scratch/Psi4-ligand")
set maxiter 500
set freeze_core True
set PROPERTIES_ORIGIN ["COM"]
e_dim= energy('wb97x-d/aug-cc-pVDZ',bsse_type='cp')

psi4.print_out('CP Energy = %10.6f' % (e_dim))
clean()
--------------------------------------------------------------------------

    Molecular point group: c1
  Charge       = 0
  Multiplicity = 1
  Basis Set: AUG-CC-PVDZ
    Blend: AUG-CC-PVDZ
  Basis Set: (AUG-CC-PVDZ AUX)
    Blend: AUG-CC-PVDZ-JKFIT
  @DF-RKS Final Energy:   -76.41957583232339
    Total Energy =                        -76.4195758323233889
    Molecular point group: c1
  Basis Set: AUG-CC-PVDZ
    Blend: AUG-CC-PVDZ
  Basis Set: (AUG-CC-PVDZ AUX)
    Blend: AUG-CC-PVDZ-JKFIT
  @DF-RKS Final Energy:   -76.42014404234958
    Total Energy =                        -76.4201440423495626
  Basis Set: AUG-CC-PVDZ
    Blend: AUG-CC-PVDZ
  Basis Set: (AUG-CC-PVDZ AUX)
    Blend: AUG-CC-PVDZ-JKFIT
  @DF-RKS Final Energy: -1188.20555573004481
    Total Energy =                      -1188.2055557300450346
  Multiplicity = 1
  Basis Set: AUG-CC-PVDZ
    Blend: AUG-CC-PVDZ
  Basis Set: (AUG-CC-PVDZ AUX)
    Blend: AUG-CC-PVDZ-JKFIT
  @DF-RKS Final Energy: -1188.20489314868541
    Total Energy =                      -1188.2048931486856418
    Molecular point group: c1

    Geometry (in Angstrom), charge = 0, multiplicity = 1:

       Center              X                  Y                   Z               Mass
    ------------   -----------------  -----------------  -----------------  -----------------
         N           -0.717428938065    -1.502455257439     0.338721352129    14.003074004430
         C           -2.007889938065    -1.221869257439     0.711972352129    12.000000000000
         C           -2.303858938065     0.289773742561     0.977661352129    12.000000000000
         F           -3.625563938065     0.569502742561     0.676440352129    18.998403162730
         F           -2.161471938065     0.490011742561     2.332421352129    18.998403162730
         C           -1.361342938065     1.309549742561     0.250465352129    12.000000000000
         C           -0.010039938065     0.813498742561    -0.105227647871    12.000000000000
         C            0.959473061935     1.695005742561    -0.630320647871    12.000000000000
         C            2.244854061935     1.241067742561    -0.952502647871    12.000000000000
         C            2.581469061935    -0.127096257439    -0.782551647871    12.000000000000
         C            1.592419061935    -1.023678257439    -0.322413647871    12.000000000000
         C            0.298873061935    -0.574094257439    -0.005123647871    12.000000000000
         S            4.173653061935    -0.807705257439    -1.143447647871    31.972071174400
         C            5.148346061935    -0.414997257439     0.331262352129    12.000000000000
         O           -2.825298938065    -2.121149257439     0.865629352129    15.994914619570
         O           -1.697723938065     2.480901742561     0.086691352129    15.994914619570
         H            2.973387061935     1.960088742561    -1.326535647871     1.007825032230
         H            0.686770061935     2.742086742561    -0.763823647871     1.007825032230
         H           -0.548969938065    -2.493591257439     0.236816352129     1.007825032230
         H            1.839980061935    -2.078396257439    -0.195023647871     1.007825032230
         H            5.215951061935     0.671488742561     0.443595352129     1.007825032230
         H            4.664741061935    -0.848629257439     1.212161352129     1.007825032230
         H            6.151556061935    -0.836360257439     0.217807352129     1.007825032230
         O           -2.604117938065    -0.118066257439    -1.869680647871    15.994914619570
         H           -3.301504938065    -0.777361257439    -1.897453647871     1.007825032230
         H           -2.956441938065     0.690508742561    -2.247621647871     1.007825032230

  Charge       = 0
  Multiplicity = 1
  Basis Set: AUG-CC-PVDZ
    Blend: AUG-CC-PVDZ
  Basis Set: (AUG-CC-PVDZ AUX)
    Blend: AUG-CC-PVDZ-JKFIT

    Orbital Energies [Eh]
    ---------------------

    Doubly Occupied:

       1A    -89.064010     2A    -24.871220     3A    -24.858440
       4A    -19.295255     5A    -19.294782     6A    -19.280794
       7A    -14.526765     8A    -10.499614     9A    -10.448591
      10A    -10.428935    11A    -10.398404    12A    -10.370831
      13A    -10.347538    14A    -10.343781    15A    -10.341942
      16A    -10.340506    17A    -10.336218    18A     -8.081469
      19A     -6.031330    20A     -6.027214    21A     -6.020269
      22A     -1.377057    23A     -1.317182    24A     -1.182216
      25A     -1.171322    26A     -1.137814    27A     -1.083837
      28A     -0.991942    29A     -0.930466    30A     -0.895302
      31A     -0.880082    32A     -0.858791    33A     -0.785075
      34A     -0.756877    35A     -0.743181    36A     -0.732517
      37A     -0.687547    38A     -0.668844    39A     -0.659538
      40A     -0.648933    41A     -0.634815    42A     -0.620845
      43A     -0.582862    44A     -0.572430    45A     -0.561773
      46A     -0.556081    47A     -0.549903    48A     -0.548052
      49A     -0.540134    50A     -0.532118    51A     -0.528487
      52A     -0.520422    53A     -0.508832    54A     -0.504300
      55A     -0.498968    56A     -0.492626    57A     -0.485599
      58A     -0.473204    59A     -0.466120    60A     -0.434038
      61A     -0.422367    62A     -0.413366    63A     -0.390594
      64A     -0.364122    65A     -0.359825    66A     -0.332296
      67A     -0.325743

  @DF-RKS Final Energy: -1264.63554081236111

   => Energetics <=

    Nuclear Repulsion Energy =           1350.7262157530135482
    One-Electron Energy =               -4421.3079554716323400
    Two-Electron Energy =                1901.9823379192771426
    DFT Exchange-Correlation Energy =     -96.0192412816282399
    Empirical Dispersion Energy =          -0.0168977313911976
    VV10 Nonlocal Energy =                  0.0000000000000000
    Total Energy =                      -1264.6355408123611141

  Dipole Moment: [D]
     X:     4.3134      Y:    -0.8151      Z:    -1.6206     Total:     4.6793

*** Psi4 exiting successfully. Buy a developer a beer!
