                               Psi4 1.3.2 release

  ==> Input File <==

--------------------------------------------------------------------------
molecule {
0 1
  N                 -0.7735580    -1.3877650     0.3762830
  C                 -2.0506670    -1.1155840     0.7908700
  C                 -2.5043840     0.3774880     0.6774080
  F                 -3.5962270     0.4156400    -0.1601540
  F                 -2.9061990     0.7850010     1.9298970
  C                 -1.4528850     1.4123530     0.1460210
  C                 -0.1227770     0.8977000    -0.2526910
  C                  0.8620890     1.7845470    -0.7401720
  C                  2.1113680     1.3117470    -1.1603950
  C                  2.4259530    -0.0670330    -1.0508120
  C                  1.4556270    -0.9494480    -0.5289330
  C                  0.1886820    -0.4855360    -0.1346250
  S                  3.9638070    -0.7835970    -1.5571510
  C                  5.1473010    -0.1867290    -0.3239010
  O                 -2.7686020    -2.0098140     1.2138050
  O                 -1.7369170     2.6034530     0.0621640
  H                  2.8251380     2.0222360    -1.5760210
  H                  0.6132780     2.8438570    -0.8113500
  H                 -0.5385400    -2.3658440     0.4783350
  H                  1.6887170    -2.0114780    -0.4410070
  H                  5.2957800     0.8895290    -0.4541750
  H                  4.7632760    -0.3852570     0.6822070
  H                  6.0990420    -0.7082150    -0.4615910
--
0 1
  O                  2.8392530     0.3768930     2.2182330
  H                  2.4248250     0.5724530     1.3761900
  H                  2.7698490     1.1534560     2.7739250
}
memory 16GB
set_num_threads(8)
psi4_io.set_default_path("/scratch/Psi4-ligand")
set maxiter 500
set freeze_core True
set PROPERTIES_ORIGIN ["COM"]
e_dim= energy('wb97x-d/aug-cc-pVDZ',bsse_type='cp')

psi4.print_out('CP Energy = %10.6f' % (e_dim))
clean()
--------------------------------------------------------------------------

    Molecular point group: c1
  Charge       = 0
  Multiplicity = 1
  Basis Set: AUG-CC-PVDZ
    Blend: AUG-CC-PVDZ
  Basis Set: (AUG-CC-PVDZ AUX)
    Blend: AUG-CC-PVDZ-JKFIT
  @DF-RKS Final Energy:   -76.41946858329841
    Total Energy =                        -76.4194685832984106
    Molecular point group: c1
  Basis Set: AUG-CC-PVDZ
    Blend: AUG-CC-PVDZ
  Basis Set: (AUG-CC-PVDZ AUX)
    Blend: AUG-CC-PVDZ-JKFIT
  @DF-RKS Final Energy:   -76.41994855233222
    Total Energy =                        -76.4199485523322295
  Basis Set: AUG-CC-PVDZ
    Blend: AUG-CC-PVDZ
  Basis Set: (AUG-CC-PVDZ AUX)
    Blend: AUG-CC-PVDZ-JKFIT
  @DF-RKS Final Energy: -1188.20705142787187
    Total Energy =                      -1188.2070514278718747
  Multiplicity = 1
  Basis Set: AUG-CC-PVDZ
    Blend: AUG-CC-PVDZ
  Basis Set: (AUG-CC-PVDZ AUX)
    Blend: AUG-CC-PVDZ-JKFIT
  @DF-RKS Final Energy: -1188.20640092111626
    Total Energy =                      -1188.2064009211162556
    Molecular point group: c1

    Geometry (in Angstrom), charge = 0, multiplicity = 1:

       Center              X                  Y                   Z               Mass
    ------------   -----------------  -----------------  -----------------  -----------------
         N           -1.020963240395    -1.508933153708     0.316336965535    14.003074004430
         C           -2.298072240395    -1.236752153708     0.730923965535    12.000000000000
         C           -2.751789240395     0.256319846292     0.617461965535    12.000000000000
         F           -3.843632240395     0.294471846292    -0.220100034465    18.998403162730
         F           -3.153604240395     0.663832846292     1.869950965535    18.998403162730
         C           -1.700290240395     1.291184846292     0.086074965535    12.000000000000
         C           -0.370182240395     0.776531846292    -0.312637034465    12.000000000000
         C            0.614683759605     1.663378846292    -0.800118034465    12.000000000000
         C            1.863962759605     1.190578846292    -1.220341034465    12.000000000000
         C            2.178547759605    -0.188201153708    -1.110758034465    12.000000000000
         C            1.208221759605    -1.070616153708    -0.588879034465    12.000000000000
         C           -0.058723240395    -0.606704153708    -0.194571034465    12.000000000000
         S            3.716401759605    -0.904765153708    -1.617097034465    31.972071174400
         C            4.899895759605    -0.307897153708    -0.383847034465    12.000000000000
         O           -3.016007240395    -2.130982153708     1.153858965535    15.994914619570
         O           -1.984322240395     2.482284846292     0.002217965535    15.994914619570
         H            2.577732759605     1.901067846292    -1.635967034465     1.007825032230
         H            0.365872759605     2.722688846292    -0.871296034465     1.007825032230
         H           -0.785945240395    -2.487012153708     0.418388965535     1.007825032230
         H            1.441311759605    -2.132646153708    -0.500953034465     1.007825032230
         H            5.048374759605     0.768360846292    -0.514121034465     1.007825032230
         H            4.515870759605    -0.506425153708     0.622260965535     1.007825032230
         H            5.851636759605    -0.829383153708    -0.521537034465     1.007825032230
         O            2.591847759605     0.255724846292     2.158286965535    15.994914619570
         H            2.177419759605     0.451284846292     1.316243965535     1.007825032230
         H            2.522443759605     1.032287846292     2.713978965535     1.007825032230

  Charge       = 0
  Multiplicity = 1
  Basis Set: AUG-CC-PVDZ
    Blend: AUG-CC-PVDZ
  Basis Set: (AUG-CC-PVDZ AUX)
    Blend: AUG-CC-PVDZ-JKFIT

    Orbital Energies [Eh]
    ---------------------

    Doubly Occupied:

       1A    -89.070989     2A    -24.876503     3A    -24.875643
       4A    -19.306279     5A    -19.289185     6A    -19.288268
       7A    -14.538824     8A    -10.511394     9A    -10.456893
      10A    -10.438641    11A    -10.412166    12A    -10.384285
      13A    -10.360215    14A    -10.357521    15A    -10.353879
      16A    -10.349109    17A    -10.339821    18A     -8.088397
      19A     -6.038278    20A     -6.034070    21A     -6.027248
      22A     -1.387370    23A     -1.331444    24A     -1.192756
      25A     -1.183991    26A     -1.131263    27A     -1.096709
      28A     -1.005687    29A     -0.940589    30A     -0.905364
      31A     -0.892412    32A     -0.868121    33A     -0.794066
      34A     -0.769109    35A     -0.755175    36A     -0.742064
      37A     -0.698771    38A     -0.682331    39A     -0.671455
      40A     -0.647594    41A     -0.645511    42A     -0.631893
      43A     -0.594143    44A     -0.582697    45A     -0.569614
      46A     -0.565478    47A     -0.560720    48A     -0.557196
      49A     -0.554116    50A     -0.538454    51A     -0.530899
      52A     -0.526436    53A     -0.520857    54A     -0.513983
      55A     -0.502819    56A     -0.499038    57A     -0.489432
      58A     -0.480421    59A     -0.477998    60A     -0.443169
      61A     -0.425157    62A     -0.416534    63A     -0.399941
      64A     -0.375665    65A     -0.373961    66A     -0.345093
      67A     -0.329633

  @DF-RKS Final Energy: -1264.63220342091540

   => Energetics <=

    Nuclear Repulsion Energy =           1336.0517149340469132
    One-Electron Energy =               -4390.7290655374508788
    Two-Electron Energy =                1886.0901623058880432
    DFT Exchange-Correlation Energy =     -96.0278932543643862
    Empirical Dispersion Energy =          -0.0171218690349682
    VV10 Nonlocal Energy =                  0.0000000000000000
    Total Energy =                      -1264.6322034209156300

  Dipole Moment: [D]
     X:     5.9404      Y:     0.4077      Z:    -1.0844     Total:     6.0523

*** Psi4 exiting successfully. Buy a developer a beer!
