                               Psi4 1.3.2 release

  ==> Input File <==

--------------------------------------------------------------------------
molecule {
0 1
  N                 -0.8910240    -1.4030780    -0.0050850
  C                 -2.1808660    -1.1218050     0.3703250
  C                 -2.4689910     0.3847960     0.6739010
  F                 -3.7849310     0.6704210     0.3591430
  F                 -2.3291420     0.5634900     2.0316330
  C                 -1.5277770     1.4100670    -0.0475910
  C                 -0.1824620     0.9149700    -0.4256940
  C                  0.7873200     1.8015830    -0.9424290
  C                  2.0693580     1.3486090    -1.2791370
  C                  2.4018320    -0.0232130    -1.1337320
  C                  1.4130960    -0.9230310    -0.6803090
  C                  0.1246030    -0.4738350    -0.3445350
  S                  3.9885200    -0.7054780    -1.5137690
  C                  4.9737920    -0.3323170    -0.0410660
  O                 -3.0031200    -2.0217960     0.5026800
  O                 -1.8575620     2.5856590    -0.1852130
  H                  2.7984520     2.0707080    -1.6457550
  H                  0.5177650     2.8518550    -1.0566600
  H                 -0.7268170    -2.3929600    -0.1238800
  H                  1.6556850    -1.9812730    -0.5767180
  H                  5.1536430     0.7460270     0.0098090
  H                  4.4330830    -0.6596020     0.8528180
  H                  5.9285950    -0.8622630    -0.1078720
--
0 1
  O                 -2.7807601    -0.5393421    -1.9492360
  H                 -3.3478001    -1.3047751    -1.8265760
  H                 -3.3151071     0.1563669    -2.3365540
}
memory 16GB
set_num_threads(8)
psi4_io.set_default_path("/scratch/Psi4-ligand")
set maxiter 500
set freeze_core True
set PROPERTIES_ORIGIN ["COM"]
e_dim= energy('wb97x-d/aug-cc-pVDZ',bsse_type='cp')

psi4.print_out('CP Energy = %10.6f' % (e_dim))
clean()
--------------------------------------------------------------------------

    Molecular point group: c1
  Charge       = 0
  Multiplicity = 1
  Basis Set: AUG-CC-PVDZ
    Blend: AUG-CC-PVDZ
  Basis Set: (AUG-CC-PVDZ AUX)
    Blend: AUG-CC-PVDZ-JKFIT
  @DF-RKS Final Energy:   -76.41957322377647
    Total Energy =                        -76.4195732237764673
    Molecular point group: c1
  Basis Set: AUG-CC-PVDZ
    Blend: AUG-CC-PVDZ
  Basis Set: (AUG-CC-PVDZ AUX)
    Blend: AUG-CC-PVDZ-JKFIT
  @DF-RKS Final Energy:   -76.42028855439423
    Total Energy =                        -76.4202885543942330
  Basis Set: AUG-CC-PVDZ
    Blend: AUG-CC-PVDZ
  Basis Set: (AUG-CC-PVDZ AUX)
    Blend: AUG-CC-PVDZ-JKFIT
  @DF-RKS Final Energy: -1188.20563034993961
    Total Energy =                      -1188.2056303499396108
  Multiplicity = 1
  Basis Set: AUG-CC-PVDZ
    Blend: AUG-CC-PVDZ
  Basis Set: (AUG-CC-PVDZ AUX)
    Blend: AUG-CC-PVDZ-JKFIT
  @DF-RKS Final Energy: -1188.20489110543758
    Total Energy =                      -1188.2048911054375822
    Molecular point group: c1

    Geometry (in Angstrom), charge = 0, multiplicity = 1:

       Center              X                  Y                   Z               Mass
    ------------   -----------------  -----------------  -----------------  -----------------
         N           -0.717789815720    -1.464660703062     0.309888043720    14.003074004430
         C           -2.007631815720    -1.183387703062     0.685298043720    12.000000000000
         C           -2.295756815720     0.323213296938     0.988874043720    12.000000000000
         F           -3.611696815720     0.608838296938     0.674116043720    18.998403162730
         F           -2.155907815720     0.501907296938     2.346606043720    18.998403162730
         C           -1.354542815720     1.348484296938     0.267382043720    12.000000000000
         C           -0.009227815720     0.853387296938    -0.110720956280    12.000000000000
         C            0.960554184280     1.740000296938    -0.627455956280    12.000000000000
         C            2.242592184280     1.287026296938    -0.964163956280    12.000000000000
         C            2.575066184280    -0.084795703062    -0.818758956280    12.000000000000
         C            1.586330184280    -0.984613703062    -0.365335956280    12.000000000000
         C            0.297837184280    -0.535417703062    -0.029561956280    12.000000000000
         S            4.161754184280    -0.767060703062    -1.198795956280    31.972071174400
         C            5.147026184280    -0.393899703062     0.273907043720    12.000000000000
         O           -2.829885815720    -2.083378703062     0.817653043720    15.994914619570
         O           -1.684327815720     2.524076296938     0.129760043720    15.994914619570
         H            2.971686184280     2.009125296938    -1.330781956280     1.007825032230
         H            0.690999184280     2.790272296938    -0.741686956280     1.007825032230
         H           -0.553582815720    -2.454542703062     0.191093043720     1.007825032230
         H            1.828919184280    -2.042855703062    -0.261744956280     1.007825032230
         H            5.326877184280     0.684444296938     0.324782043720     1.007825032230
         H            4.606317184280    -0.721184703062     1.167791043720     1.007825032230
         H            6.101829184280    -0.923845703062     0.207101043720     1.007825032230
         O           -2.607525915720    -0.600924803062    -1.634262956280    15.994914619570
         H           -3.174565915720    -1.366357803062    -1.511602956280     1.007825032230
         H           -3.141872915720     0.094784196938    -2.021580956280     1.007825032230

  Charge       = 0
  Multiplicity = 1
  Basis Set: AUG-CC-PVDZ
    Blend: AUG-CC-PVDZ
  Basis Set: (AUG-CC-PVDZ AUX)
    Blend: AUG-CC-PVDZ-JKFIT

    Orbital Energies [Eh]
    ---------------------

    Doubly Occupied:

       1A    -89.064001     2A    -24.872600     3A    -24.860562
       4A    -19.296780     5A    -19.296250     6A    -19.278379
       7A    -14.524121     8A    -10.500091     9A    -10.449477
      10A    -10.428881    11A    -10.398038    12A    -10.370963
      13A    -10.347636    14A    -10.343993    15A    -10.341592
      16A    -10.340502    17A    -10.336149    18A     -8.081485
      19A     -6.031344    20A     -6.027230    21A     -6.020282
      22A     -1.378242    23A     -1.319752    24A     -1.182263
      25A     -1.172923    26A     -1.140848    27A     -1.082704
      28A     -0.991913    29A     -0.930609    30A     -0.895493
      31A     -0.879966    32A     -0.859058    33A     -0.785273
      34A     -0.756621    35A     -0.742967    36A     -0.732692
      37A     -0.688099    38A     -0.669380    39A     -0.661967
      40A     -0.654064    41A     -0.634682    42A     -0.621212
      43A     -0.582968    44A     -0.572803    45A     -0.563476
      46A     -0.556409    47A     -0.550003    48A     -0.548619
      49A     -0.541141    50A     -0.532783    51A     -0.528604
      52A     -0.521125    53A     -0.512166    54A     -0.505648
      55A     -0.497533    56A     -0.492256    57A     -0.486909
      58A     -0.474088    59A     -0.466208    60A     -0.435793
      61A     -0.422340    62A     -0.412199    63A     -0.390456
      64A     -0.364461    65A     -0.360152    66A     -0.331859
      67A     -0.325868

  @DF-RKS Final Energy: -1264.63289361467628

   => Energetics <=

    Nuclear Repulsion Energy =           1356.0474130511622661
    One-Electron Energy =               -4431.8756042494233043
    Two-Electron Energy =                1907.2437972019365588
    DFT Exchange-Correlation Energy =     -96.0315235394871394
    Empirical Dispersion Energy =          -0.0169760788646007
    VV10 Nonlocal Energy =                  0.0000000000000000
    Total Energy =                      -1264.6328936146765045

  Dipole Moment: [D]
     X:     4.2547      Y:    -1.1482      Z:    -1.4561     Total:     4.6413

*** Psi4 exiting successfully. Buy a developer a beer!
