                               Psi4 1.3.2 release

  ==> Input File <==

--------------------------------------------------------------------------
molecule {
0 1
  N                 -0.8329220    -1.4316820     0.0850080
  C                 -2.1158040    -1.1558080     0.4843320
  C                 -2.4289050     0.3591460     0.7054530
  F                 -3.7555890     0.5940930     0.3944060
  F                 -2.2736550     0.6195540     2.0481740
  C                 -1.5199820     1.3601920    -0.0901970
  C                 -0.1640620     0.8757330    -0.4452730
  C                  0.7840340     1.7520530    -1.0162350
  C                  2.0710080     1.3050290    -1.3425650
  C                  2.4281110    -0.0524070    -1.1340790
  C                  1.4580920    -0.9467950    -0.6323440
  C                  0.1650140    -0.5031110    -0.3071010
  S                  4.0263480    -0.7214740    -1.4867930
  C                  4.9860630    -0.3162710    -0.0061480
  O                 -2.9120640    -2.0610510     0.6968400
  O                 -1.8772710     2.5202120    -0.2916330
  H                  2.7862340     2.0217350    -1.7452190
  H                  0.4932850     2.7892110    -1.1843840
  H                 -0.6535010    -2.4233640     0.0118350
  H                  1.7211530    -1.9936930    -0.4758020
  H                  5.0542680     0.7713970     0.0950450
  H                  4.4911080    -0.7384740     0.8741880
  H                  5.9893040    -0.7414380    -0.1033230
--
0 1
  O                 -2.3735804     0.3669992    -1.8471154
  H                 -3.1055784    -0.2485588    -1.9247054
  H                 -2.6514904     1.1976092    -2.2393654
}
memory 16GB
set_num_threads(8)
psi4_io.set_default_path("/scratch/Psi4-ligand")
set maxiter 500
set freeze_core True
set PROPERTIES_ORIGIN ["COM"]
e_dim= energy('wb97x-d/aug-cc-pVDZ',bsse_type='cp')

psi4.print_out('CP Energy = %10.6f' % (e_dim))
clean()
--------------------------------------------------------------------------

    Molecular point group: c1
  Charge       = 0
  Multiplicity = 1
  Basis Set: AUG-CC-PVDZ
    Blend: AUG-CC-PVDZ
  Basis Set: (AUG-CC-PVDZ AUX)
    Blend: AUG-CC-PVDZ-JKFIT
  @DF-RKS Final Energy:   -76.41957093212662
    Total Energy =                        -76.4195709321266037
    Molecular point group: c1
  Basis Set: AUG-CC-PVDZ
    Blend: AUG-CC-PVDZ
  Basis Set: (AUG-CC-PVDZ AUX)
    Blend: AUG-CC-PVDZ-JKFIT
  @DF-RKS Final Energy:   -76.42056311796749
    Total Energy =                        -76.4205631179674754
  Basis Set: AUG-CC-PVDZ
    Blend: AUG-CC-PVDZ
  Basis Set: (AUG-CC-PVDZ AUX)
    Blend: AUG-CC-PVDZ-JKFIT
  @DF-RKS Final Energy: -1188.20575508513730
    Total Energy =                      -1188.2057550851372980
  Multiplicity = 1
  Basis Set: AUG-CC-PVDZ
    Blend: AUG-CC-PVDZ
  Basis Set: (AUG-CC-PVDZ AUX)
    Blend: AUG-CC-PVDZ-JKFIT
  @DF-RKS Final Energy: -1188.20483159032415
    Total Energy =                      -1188.2048315903239200
    Molecular point group: c1

    Geometry (in Angstrom), charge = 0, multiplicity = 1:

       Center              X                  Y                   Z               Mass
    ------------   -----------------  -----------------  -----------------  -----------------
         N           -0.718562714440    -1.531017542282     0.372937997748    14.003074004430
         C           -2.001444714440    -1.255143542282     0.772261997748    12.000000000000
         C           -2.314545714440     0.259810457718     0.993382997748    12.000000000000
         F           -3.641229714440     0.494757457718     0.682335997748    18.998403162730
         F           -2.159295714440     0.520218457718     2.336103997748    18.998403162730
         C           -1.405622714440     1.260856457718     0.197732997748    12.000000000000
         C           -0.049702714440     0.776397457718    -0.157343002252    12.000000000000
         C            0.898393285560     1.652717457718    -0.728305002252    12.000000000000
         C            2.185367285560     1.205693457718    -1.054635002252    12.000000000000
         C            2.542470285560    -0.151742542282    -0.846149002252    12.000000000000
         C            1.572451285560    -1.046130542282    -0.344414002252    12.000000000000
         C            0.279373285560    -0.602446542282    -0.019171002252    12.000000000000
         S            4.140707285560    -0.820809542282    -1.198863002252    31.972071174400
         C            5.100422285560    -0.415606542282     0.281781997748    12.000000000000
         O           -2.797704714440    -2.160386542282     0.984769997748    15.994914619570
         O           -1.762911714440     2.420876457718    -0.003703002252    15.994914619570
         H            2.900593285560     1.922399457718    -1.457289002252     1.007825032230
         H            0.607644285560     2.689875457718    -0.896454002252     1.007825032230
         H           -0.539141714440    -2.522699542282     0.299764997748     1.007825032230
         H            1.835512285560    -2.093028542282    -0.187872002252     1.007825032230
         H            5.168627285560     0.672061457718     0.382974997748     1.007825032230
         H            4.605467285560    -0.837809542282     1.162117997748     1.007825032230
         H            6.103663285560    -0.840773542282     0.184606997748     1.007825032230
         O           -2.259221114440     0.267663657718    -1.559185402252    15.994914619570
         H           -2.991219114440    -0.347894342282    -1.636775402252     1.007825032230
         H           -2.537131114440     1.098273657718    -1.951435402252     1.007825032230

  Charge       = 0
  Multiplicity = 1
  Basis Set: AUG-CC-PVDZ
    Blend: AUG-CC-PVDZ
  Basis Set: (AUG-CC-PVDZ AUX)
    Blend: AUG-CC-PVDZ-JKFIT

    Orbital Energies [Eh]
    ---------------------

    Doubly Occupied:

       1A    -89.061528     2A    -24.870662     3A    -24.861542
       4A    -19.313746     5A    -19.282325     6A    -19.281687
       7A    -14.527666     8A    -10.498507     9A    -10.448701
      10A    -10.428576    11A    -10.394056    12A    -10.366604
      13A    -10.344228    14A    -10.339886    15A    -10.339694
      16A    -10.338318    17A    -10.333846    18A     -8.078982
      19A     -6.028833    20A     -6.024732    21A     -6.017794
      22A     -1.377740    23A     -1.320214    24A     -1.184684
      25A     -1.172653    26A     -1.154378    27A     -1.084104
      28A     -0.989405    29A     -0.928023    30A     -0.894235
      31A     -0.878033    32A     -0.857475    33A     -0.783523
      34A     -0.755797    35A     -0.742243    36A     -0.731403
      37A     -0.687527    38A     -0.675132    39A     -0.666957
      40A     -0.662380    41A     -0.634222    42A     -0.620095
      43A     -0.580056    44A     -0.572753    45A     -0.566279
      46A     -0.558155    47A     -0.551189    48A     -0.546509
      49A     -0.541010    50A     -0.532271    51A     -0.526677
      52A     -0.521809    53A     -0.517573    54A     -0.513656
      55A     -0.494760    56A     -0.491829    57A     -0.480854
      58A     -0.473408    59A     -0.464725    60A     -0.432603
      61A     -0.429341    62A     -0.411170    63A     -0.389807
      64A     -0.360023    65A     -0.355728    66A     -0.330217
      67A     -0.324099

  @DF-RKS Final Energy: -1264.62397274015984

   => Energetics <=

    Nuclear Repulsion Energy =           1368.8860087380787718
    One-Electron Energy =               -4457.5566987422007514
    Two-Electron Energy =                1920.1174877441069384
    DFT Exchange-Correlation Energy =     -96.0534152108415498
    Empirical Dispersion Energy =          -0.0173552693033964
    VV10 Nonlocal Energy =                  0.0000000000000000
    Total Energy =                      -1264.6239727401598429

  Dipole Moment: [D]
     X:     3.9362      Y:    -0.7972      Z:    -2.0334     Total:     4.5016

*** Psi4 exiting successfully. Buy a developer a beer!
