                               Psi4 1.3.2 release

  ==> Input File <==

--------------------------------------------------------------------------
molecule {
0 1
  N                 -0.9782100    -1.3675700    -0.0527530
  C                 -2.2531490    -1.0840870     0.3652430
  C                 -2.5284270     0.4178140     0.7045670
  F                 -3.8206750     0.7286450     0.3229830
  F                 -2.4611000     0.5483650     2.0729670
  C                 -1.5431250     1.4604730     0.0715130
  C                 -0.2162180     0.9523050    -0.3492600
  C                  0.7709500     1.8438230    -0.8220770
  C                  2.0352310     1.3795420    -1.2057160
  C                  2.3341780    -0.0063160    -1.1452420
  C                  1.3275290    -0.9066280    -0.7343480
  C                  0.0540120    -0.4457660    -0.3585310
  S                  3.9004990    -0.7023180    -1.5798170
  C                  4.9455830    -0.3095440    -0.1541970
  O                 -3.0799340    -1.9783730     0.4939980
  O                 -1.8353400     2.6535240     0.0187490
  H                  2.7770320     2.1038670    -1.5404780
  H                  0.5276530     2.9054730    -0.8695930
  H                 -0.8317790    -2.3551090    -0.2096690
  H                  1.5449830    -1.9747330    -0.6936250
  H                  5.1390170     0.7673160    -0.1339530
  H                  4.4353630    -0.6104790     0.7663910
  H                  5.8915050    -0.8515650    -0.2448350
--
0 1
  O                 -3.0458146     0.2750603    -1.9780173
  H                 -3.6927266    -0.4332587    -2.0021943
  H                 -3.5059066     1.0946753    -2.1697983
}
memory 16GB
set_num_threads(8)
psi4_io.set_default_path("/scratch/Psi4-ligand")
set maxiter 500
set freeze_core True
set PROPERTIES_ORIGIN ["COM"]
e_dim= energy('wb97x-d/aug-cc-pVDZ',bsse_type='cp')

psi4.print_out('CP Energy = %10.6f' % (e_dim))
clean()
--------------------------------------------------------------------------

    Molecular point group: c1
  Charge       = 0
  Multiplicity = 1
  Basis Set: AUG-CC-PVDZ
    Blend: AUG-CC-PVDZ
  Basis Set: (AUG-CC-PVDZ AUX)
    Blend: AUG-CC-PVDZ-JKFIT
  @DF-RKS Final Energy:   -76.41956309455232
    Total Energy =                        -76.4195630945523305
    Molecular point group: c1
  Basis Set: AUG-CC-PVDZ
    Blend: AUG-CC-PVDZ
  Basis Set: (AUG-CC-PVDZ AUX)
    Blend: AUG-CC-PVDZ-JKFIT
  @DF-RKS Final Energy:   -76.42018528423165
    Total Energy =                        -76.4201852842316498
  Basis Set: AUG-CC-PVDZ
    Blend: AUG-CC-PVDZ
  Basis Set: (AUG-CC-PVDZ AUX)
    Blend: AUG-CC-PVDZ-JKFIT
  @DF-RKS Final Energy: -1188.20606735105457
    Total Energy =                      -1188.2060673510547986
  Multiplicity = 1
  Basis Set: AUG-CC-PVDZ
    Blend: AUG-CC-PVDZ
  Basis Set: (AUG-CC-PVDZ AUX)
    Blend: AUG-CC-PVDZ-JKFIT
  @DF-RKS Final Energy: -1188.20527930284720
    Total Energy =                      -1188.2052793028472024
    Molecular point group: c1

    Geometry (in Angstrom), charge = 0, multiplicity = 1:

       Center              X                  Y                   Z               Mass
    ------------   -----------------  -----------------  -----------------  -----------------
         N           -0.732367724077    -1.513629878273     0.253177838043    14.003074004430
         C           -2.007306724077    -1.230146878273     0.671173838043    12.000000000000
         C           -2.282584724077     0.271754121727     1.010497838043    12.000000000000
         F           -3.574832724077     0.582585121727     0.628913838043    18.998403162730
         F           -2.215257724077     0.402305121727     2.378897838043    18.998403162730
         C           -1.297282724077     1.314413121727     0.377443838043    12.000000000000
         C            0.029624275923     0.806245121727    -0.043329161957    12.000000000000
         C            1.016792275923     1.697763121727    -0.516146161957    12.000000000000
         C            2.281073275923     1.233482121727    -0.899785161957    12.000000000000
         C            2.580020275923    -0.152375878273    -0.839311161957    12.000000000000
         C            1.573371275923    -1.052687878273    -0.428417161957    12.000000000000
         C            0.299854275923    -0.591825878273    -0.052600161957    12.000000000000
         S            4.146341275923    -0.848377878273    -1.273886161957    31.972071174400
         C            5.191425275923    -0.455603878273     0.151733838043    12.000000000000
         O           -2.834091724077    -2.124432878273     0.799928838043    15.994914619570
         O           -1.589497724077     2.507464121727     0.324679838043    15.994914619570
         H            3.022874275923     1.957807121727    -1.234547161957     1.007825032230
         H            0.773495275923     2.759413121727    -0.563662161957     1.007825032230
         H           -0.585936724077    -2.501168878273     0.096261838043     1.007825032230
         H            1.790825275923    -2.120792878273    -0.387694161957     1.007825032230
         H            5.384859275923     0.621256121727     0.171977838043     1.007825032230
         H            4.681205275923    -0.756538878273     1.072321838043     1.007825032230
         H            6.137347275923    -0.997624878273     0.061095838043     1.007825032230
         O           -2.799972324077     0.129000421727    -1.672086461957    15.994914619570
         H           -3.446884324077    -0.579318578273    -1.696263461957     1.007825032230
         H           -3.260064324077     0.948615421727    -1.863867461957     1.007825032230

  Charge       = 0
  Multiplicity = 1
  Basis Set: AUG-CC-PVDZ
    Blend: AUG-CC-PVDZ
  Basis Set: (AUG-CC-PVDZ AUX)
    Blend: AUG-CC-PVDZ-JKFIT

    Orbital Energies [Eh]
    ---------------------

    Doubly Occupied:

       1A    -89.064721     2A    -24.871606     3A    -24.856735
       4A    -19.294192     5A    -19.288691     6A    -19.281132
       7A    -14.527637     8A    -10.499797     9A    -10.448883
      10A    -10.428351    11A    -10.398649    12A    -10.371350
      13A    -10.347166    14A    -10.343749    15A    -10.342095
      16A    -10.340899    17A    -10.336202    18A     -8.082210
      19A     -6.032059    20A     -6.027942    21A     -6.021031
      22A     -1.376939    23A     -1.318564    24A     -1.183220
      25A     -1.171143    26A     -1.133604    27A     -1.084866
      28A     -0.992431    29A     -0.930857    30A     -0.895491
      31A     -0.880252    32A     -0.859097    33A     -0.785615
      34A     -0.757326    35A     -0.743535    36A     -0.733075
      37A     -0.687825    38A     -0.670019    39A     -0.660939
      40A     -0.645379    41A     -0.635643    42A     -0.621384
      43A     -0.582970    44A     -0.572496    45A     -0.561312
      46A     -0.556803    47A     -0.549898    48A     -0.548136
      49A     -0.541544    50A     -0.532268    51A     -0.529315
      52A     -0.520400    53A     -0.513324    54A     -0.504345
      55A     -0.497008    56A     -0.492264    57A     -0.484881
      58A     -0.472705    59A     -0.466292    60A     -0.434532
      61A     -0.413929    62A     -0.412182    63A     -0.390854
      64A     -0.364303    65A     -0.361366    66A     -0.333190
      67A     -0.324768

  @DF-RKS Final Energy: -1264.63075103906544

   => Energetics <=

    Nuclear Repulsion Energy =           1352.8094917582529888
    One-Electron Energy =               -4425.4625305293593556
    Two-Electron Energy =                1904.0711307157030205
    DFT Exchange-Correlation Energy =     -96.0319654986219575
    Empirical Dispersion Energy =          -0.0168774850401252
    VV10 Nonlocal Energy =                  0.0000000000000000
    Total Energy =                      -1264.6307510390654443

  Dipole Moment: [D]
     X:     4.2761      Y:    -0.8109      Z:    -1.4373     Total:     4.5835

*** Psi4 exiting successfully. Buy a developer a beer!
