                               Psi4 1.3.2 release

  ==> Input File <==

--------------------------------------------------------------------------
molecule {
0 1
  N                 -0.7735580    -1.3877650     0.3762830
  C                 -2.0506670    -1.1155840     0.7908700
  C                 -2.5043840     0.3774880     0.6774080
  F                 -3.5962270     0.4156400    -0.1601540
  F                 -2.9061990     0.7850010     1.9298970
  C                 -1.4528850     1.4123530     0.1460210
  C                 -0.1227770     0.8977000    -0.2526910
  C                  0.8620890     1.7845470    -0.7401720
  C                  2.1113680     1.3117470    -1.1603950
  C                  2.4259530    -0.0670330    -1.0508120
  C                  1.4556270    -0.9494480    -0.5289330
  C                  0.1886820    -0.4855360    -0.1346250
  S                  3.9638070    -0.7835970    -1.5571510
  C                  5.1473010    -0.1867290    -0.3239010
  O                 -2.7686020    -2.0098140     1.2138050
  O                 -1.7369170     2.6034530     0.0621640
  H                  2.8251380     2.0222360    -1.5760210
  H                  0.6132780     2.8438570    -0.8113500
  H                 -0.5385400    -2.3658440     0.4783350
  H                  1.6887170    -2.0114780    -0.4410070
  H                  5.2957800     0.8895290    -0.4541750
  H                  4.7632760    -0.3852570     0.6822070
  H                  6.0990420    -0.7082150    -0.4615910
--
0 1
  O                  2.8390274     0.5047902     2.7036334
  H                  2.4245994     0.7003502     1.8615904
  H                  2.7696234     1.2813532     3.2593254
}
memory 16GB
set_num_threads(8)
psi4_io.set_default_path("/scratch/Psi4-ligand")
set maxiter 500
set freeze_core True
set PROPERTIES_ORIGIN ["COM"]
e_dim= energy('wb97x-d/aug-cc-pVDZ',bsse_type='cp')

psi4.print_out('CP Energy = %10.6f' % (e_dim))
clean()
--------------------------------------------------------------------------

    Molecular point group: c1
  Charge       = 0
  Multiplicity = 1
  Basis Set: AUG-CC-PVDZ
    Blend: AUG-CC-PVDZ
  Basis Set: (AUG-CC-PVDZ AUX)
    Blend: AUG-CC-PVDZ-JKFIT
  @DF-RKS Final Energy:   -76.41946858335318
    Total Energy =                        -76.4194685833531935
    Molecular point group: c1
  Basis Set: AUG-CC-PVDZ
    Blend: AUG-CC-PVDZ
  Basis Set: (AUG-CC-PVDZ AUX)
    Blend: AUG-CC-PVDZ-JKFIT
  @DF-RKS Final Energy:   -76.41979322573789
    Total Energy =                        -76.4197932257378909
  Basis Set: AUG-CC-PVDZ
    Blend: AUG-CC-PVDZ
  Basis Set: (AUG-CC-PVDZ AUX)
    Blend: AUG-CC-PVDZ-JKFIT
  @DF-RKS Final Energy: -1188.20688534656938
    Total Energy =                      -1188.2068853465693792
  Multiplicity = 1
  Basis Set: AUG-CC-PVDZ
    Blend: AUG-CC-PVDZ
  Basis Set: (AUG-CC-PVDZ AUX)
    Blend: AUG-CC-PVDZ-JKFIT
  @DF-RKS Final Energy: -1188.20639591292070
    Total Energy =                      -1188.2063959129206978
    Molecular point group: c1

    Geometry (in Angstrom), charge = 0, multiplicity = 1:

       Center              X                  Y                   Z               Mass
    ------------   -----------------  -----------------  -----------------  -----------------
         N           -1.020947674260    -1.517757910261     0.282844908158    14.003074004430
         C           -2.298056674260    -1.245576910261     0.697431908158    12.000000000000
         C           -2.751773674260     0.247495089739     0.583969908158    12.000000000000
         F           -3.843616674260     0.285647089739    -0.253592091842    18.998403162730
         F           -3.153588674260     0.655008089739     1.836458908158    18.998403162730
         C           -1.700274674260     1.282360089739     0.052582908158    12.000000000000
         C           -0.370166674260     0.767707089739    -0.346129091842    12.000000000000
         C            0.614699325740     1.654554089739    -0.833610091842    12.000000000000
         C            1.863978325740     1.181754089739    -1.253833091842    12.000000000000
         C            2.178563325740    -0.197025910261    -1.144250091842    12.000000000000
         C            1.208237325740    -1.079440910261    -0.622371091842    12.000000000000
         C           -0.058707674260    -0.615528910261    -0.228063091842    12.000000000000
         S            3.716417325740    -0.913589910261    -1.650589091842    31.972071174400
         C            4.899911325740    -0.316721910261    -0.417339091842    12.000000000000
         O           -3.015991674260    -2.139806910261     1.120366908158    15.994914619570
         O           -1.984306674260     2.473460089739    -0.031274091842    15.994914619570
         H            2.577748325740     1.892243089739    -1.669459091842     1.007825032230
         H            0.365888325740     2.713864089739    -0.904788091842     1.007825032230
         H           -0.785929674260    -2.495836910261     0.384896908158     1.007825032230
         H            1.441327325740    -2.141470910261    -0.534445091842     1.007825032230
         H            5.048390325740     0.759536089739    -0.547613091842     1.007825032230
         H            4.515886325740    -0.515249910261     0.588768908158     1.007825032230
         H            5.851652325740    -0.838207910261    -0.555029091842     1.007825032230
         O            2.591637725740     0.374797289739     2.610195308158    15.994914619570
         H            2.177209725740     0.570357289739     1.768152308158     1.007825032230
         H            2.522233725740     1.151360289739     3.165887308158     1.007825032230

  Charge       = 0
  Multiplicity = 1
  Basis Set: AUG-CC-PVDZ
    Blend: AUG-CC-PVDZ
  Basis Set: (AUG-CC-PVDZ AUX)
    Blend: AUG-CC-PVDZ-JKFIT

    Orbital Energies [Eh]
    ---------------------

    Doubly Occupied:

       1A    -89.071632     2A    -24.876196     3A    -24.875367
       4A    -19.305674     5A    -19.289012     6A    -19.288843
       7A    -14.538487     8A    -10.511031     9A    -10.456556
      10A    -10.438104    11A    -10.411337    12A    -10.383483
      13A    -10.359350    14A    -10.356356    15A    -10.353064
      16A    -10.347919    17A    -10.342829    18A     -8.089067
      19A     -6.038941    20A     -6.034749    21A     -6.027912
      22A     -1.387076    23A     -1.331157    24A     -1.192437
      25A     -1.183443    26A     -1.131112    27A     -1.096314
      28A     -1.004410    29A     -0.940377    30A     -0.905211
      31A     -0.891619    32A     -0.868249    33A     -0.794359
      34A     -0.768525    35A     -0.754694    36A     -0.742197
      37A     -0.698134    38A     -0.681910    39A     -0.671153
      40A     -0.646350    41A     -0.644579    42A     -0.631375
      43A     -0.593525    44A     -0.582196    45A     -0.569504
      46A     -0.565237    47A     -0.559987    48A     -0.557000
      49A     -0.553995    50A     -0.538696    51A     -0.532908
      52A     -0.527256    53A     -0.520525    54A     -0.513019
      55A     -0.502420    56A     -0.497995    57A     -0.489661
      58A     -0.480959    59A     -0.477524    60A     -0.443265
      61A     -0.423978    62A     -0.417566    63A     -0.399544
      64A     -0.374950    65A     -0.373505    66A     -0.344468
      67A     -0.330272

  @DF-RKS Final Energy: -1264.63126233369485

   => Energetics <=

    Nuclear Repulsion Energy =           1324.8208227281254494
    One-Electron Energy =               -4368.2993492483810769
    Two-Electron Energy =                1874.8847809747733208
    DFT Exchange-Correlation Energy =     -96.0214095216078363
    Empirical Dispersion Energy =          -0.0161072666050802
    VV10 Nonlocal Energy =                  0.0000000000000000
    Total Energy =                      -1264.6312623336950764

  Dipole Moment: [D]
     X:     6.0129      Y:     0.4527      Z:    -1.1142     Total:     6.1320

*** Psi4 exiting successfully. Buy a developer a beer!
