                               Psi4 1.3.2 release

  ==> Input File <==

--------------------------------------------------------------------------
molecule {
0 1
  N                 -0.8329220    -1.4316820     0.0850080
  C                 -2.1158040    -1.1558080     0.4843320
  C                 -2.4289050     0.3591460     0.7054530
  F                 -3.7555890     0.5940930     0.3944060
  F                 -2.2736550     0.6195540     2.0481740
  C                 -1.5199820     1.3601920    -0.0901970
  C                 -0.1640620     0.8757330    -0.4452730
  C                  0.7840340     1.7520530    -1.0162350
  C                  2.0710080     1.3050290    -1.3425650
  C                  2.4281110    -0.0524070    -1.1340790
  C                  1.4580920    -0.9467950    -0.6323440
  C                  0.1650140    -0.5031110    -0.3071010
  S                  4.0263480    -0.7214740    -1.4867930
  C                  4.9860630    -0.3162710    -0.0061480
  O                 -2.9120640    -2.0610510     0.6968400
  O                 -1.8772710     2.5202120    -0.2916330
  H                  2.7862340     2.0217350    -1.7452190
  H                  0.4932850     2.7892110    -1.1843840
  H                 -0.6535010    -2.4233640     0.0118350
  H                  1.7211530    -1.9936930    -0.4758020
  H                  5.0542680     0.7713970     0.0950450
  H                  4.4911080    -0.7384740     0.8741880
  H                  5.9893040    -0.7414380    -0.1033230
--
0 1
  O                 -2.8003796    -0.1295972    -2.7255746
  H                 -3.5323776    -0.7451552    -2.8031646
  H                 -3.0782896     0.7010128    -3.1178246
}
memory 16GB
set_num_threads(8)
psi4_io.set_default_path("/scratch/Psi4-ligand")
set maxiter 500
set freeze_core True
set PROPERTIES_ORIGIN ["COM"]
e_dim= energy('wb97x-d/aug-cc-pVDZ',bsse_type='cp')

psi4.print_out('CP Energy = %10.6f' % (e_dim))
clean()
--------------------------------------------------------------------------

    Molecular point group: c1
  Charge       = 0
  Multiplicity = 1
  Basis Set: AUG-CC-PVDZ
    Blend: AUG-CC-PVDZ
  Basis Set: (AUG-CC-PVDZ AUX)
    Blend: AUG-CC-PVDZ-JKFIT
  @DF-RKS Final Energy:   -76.41957093200786
    Total Energy =                        -76.4195709320078436
    Molecular point group: c1
  Basis Set: AUG-CC-PVDZ
    Blend: AUG-CC-PVDZ
  Basis Set: (AUG-CC-PVDZ AUX)
    Blend: AUG-CC-PVDZ-JKFIT
  @DF-RKS Final Energy:   -76.41984679273195
    Total Energy =                        -76.4198467927319456
  Basis Set: AUG-CC-PVDZ
    Blend: AUG-CC-PVDZ
  Basis Set: (AUG-CC-PVDZ AUX)
    Blend: AUG-CC-PVDZ-JKFIT
  @DF-RKS Final Energy: -1188.20503356866834
    Total Energy =                      -1188.2050335686683411
  Multiplicity = 1
  Basis Set: AUG-CC-PVDZ
    Blend: AUG-CC-PVDZ
  Basis Set: (AUG-CC-PVDZ AUX)
    Blend: AUG-CC-PVDZ-JKFIT
  @DF-RKS Final Energy: -1188.20482843244008
    Total Energy =                      -1188.2048284324400811
    Molecular point group: c1

    Geometry (in Angstrom), charge = 0, multiplicity = 1:

       Center              X                  Y                   Z               Mass
    ------------   -----------------  -----------------  -----------------  -----------------
         N           -0.689114071021    -1.496752974058     0.433550650580    14.003074004430
         C           -1.971996071021    -1.220878974058     0.832874650580    12.000000000000
         C           -2.285097071021     0.294075025942     1.053995650580    12.000000000000
         F           -3.611781071021     0.529022025942     0.742948650580    18.998403162730
         F           -2.129847071021     0.554483025942     2.396716650580    18.998403162730
         C           -1.376174071021     1.295121025942     0.258345650580    12.000000000000
         C           -0.020254071021     0.810662025942    -0.096730349420    12.000000000000
         C            0.927841928979     1.686982025942    -0.667692349420    12.000000000000
         C            2.214815928979     1.239958025942    -0.994022349420    12.000000000000
         C            2.571918928979    -0.117477974058    -0.785536349420    12.000000000000
         C            1.601899928979    -1.011865974058    -0.283801349420    12.000000000000
         C            0.308821928979    -0.568181974058     0.041441650580    12.000000000000
         S            4.170155928979    -0.786544974058    -1.138250349420    31.972071174400
         C            5.129870928979    -0.381341974058     0.342394650580    12.000000000000
         O           -2.768256071021    -2.126121974058     1.045382650580    15.994914619570
         O           -1.733463071021     2.455141025942     0.056909650580    15.994914619570
         H            2.930041928979     1.956664025942    -1.396676349420     1.007825032230
         H            0.637092928979     2.724140025942    -0.835841349420     1.007825032230
         H           -0.509693071021    -2.488434974058     0.360377650580     1.007825032230
         H            1.864960928979    -2.058763974058    -0.127259349420     1.007825032230
         H            5.198075928979     0.706326025942     0.443587650580     1.007825032230
         H            4.634915928979    -0.803544974058     1.222730650580     1.007825032230
         H            6.133111928979    -0.806508974058     0.245219650580     1.007825032230
         O           -2.656571671021    -0.194668174058    -2.377031949420    15.994914619570
         H           -3.388569671021    -0.810226174058    -2.454621949420     1.007825032230
         H           -2.934481671021     0.635941825942    -2.769281949420     1.007825032230

  Charge       = 0
  Multiplicity = 1
  Basis Set: AUG-CC-PVDZ
    Blend: AUG-CC-PVDZ
  Basis Set: (AUG-CC-PVDZ AUX)
    Blend: AUG-CC-PVDZ-JKFIT

    Orbital Energies [Eh]
    ---------------------

    Doubly Occupied:

       1A    -89.064524     2A    -24.874278     3A    -24.860351
       4A    -19.297151     5A    -19.287962     6A    -19.281308
       7A    -14.528109     8A    -10.502000     9A    -10.448596
      10A    -10.430071    11A    -10.399705    12A    -10.371859
      13A    -10.348974    14A    -10.345213    15A    -10.342876
      16A    -10.341071    17A    -10.337255    18A     -8.082007
      19A     -6.031867    20A     -6.027763    21A     -6.020790
      22A     -1.379010    23A     -1.319912    24A     -1.182957
      25A     -1.172498    26A     -1.129091    27A     -1.085345
      28A     -0.993242    29A     -0.931750    30A     -0.896826
      31A     -0.881395    32A     -0.860103    33A     -0.786132
      34A     -0.758119    35A     -0.744491    36A     -0.733631
      37A     -0.688962    38A     -0.670233    39A     -0.661706
      40A     -0.640154    41A     -0.636048    42A     -0.622028
      43A     -0.584171    44A     -0.573684    45A     -0.561746
      46A     -0.556264    47A     -0.550996    48A     -0.548773
      49A     -0.541543    50A     -0.533341    51A     -0.528757
      52A     -0.521562    53A     -0.509645    54A     -0.505515
      55A     -0.494429    56A     -0.491066    57A     -0.486674
      58A     -0.474033    59A     -0.467091    60A     -0.434527
      61A     -0.416496    62A     -0.414103    63A     -0.391305
      64A     -0.365258    65A     -0.360682    66A     -0.332815
      67A     -0.327142

  @DF-RKS Final Energy: -1264.63238992286483

   => Energetics <=

    Nuclear Repulsion Energy =           1334.8029022670341419
    One-Electron Energy =               -4389.3974369536645099
    Two-Electron Energy =                1885.9882713751555912
    DFT Exchange-Correlation Energy =     -96.0102947073719974
    Empirical Dispersion Energy =          -0.0158319040183840
    VV10 Nonlocal Energy =                  0.0000000000000000
    Total Energy =                      -1264.6323899228648315

  Dipole Moment: [D]
     X:     4.4600      Y:    -0.6792      Z:    -1.6359     Total:     4.7988

*** Psi4 exiting successfully. Buy a developer a beer!
