                               Psi4 1.3.2 release

  ==> Input File <==

--------------------------------------------------------------------------
molecule {
0 1
  N                 -0.7685550    -1.3927420     0.3453050
  C                 -2.0454150    -1.1492830     0.7782580
  C                 -2.5270200     0.3364600     0.6883900
  F                 -3.6014700     0.3707270    -0.1712770
  F                 -2.9637720     0.7084010     1.9405340
  C                 -1.4851110     1.4030980     0.2004280
  C                 -0.1517140     0.9179150    -0.2225990
  C                  0.8248890     1.8303570    -0.6770190
  C                  2.0740430     1.3877300    -1.1289330
  C                  2.4015320     0.0083160    -1.0705750
  C                  1.4441770    -0.9018200    -0.5728380
  C                  0.1767120    -0.4643990    -0.1514740
  S                  3.9507640    -0.6695320    -1.5931640
  C                  5.0717630    -0.3031620    -0.2197520
  O                 -2.7437950    -2.0628100     1.1926300
  O                 -1.7801450     2.5938830     0.1635240
  H                  2.7815910     2.1208260    -1.5142670
  H                  0.5666820     2.8897050    -0.7056400
  H                 -0.5187200    -2.3693380     0.4195400
  H                  1.6892370    -1.9636950    -0.5229130
  H                  5.4085280     0.7353380    -0.2958230
  H                  4.5520560    -0.4472920     0.7330920
  H                  5.9333610    -0.9753140    -0.2724440
--
0 1
  O                  3.3046134     1.6094304     2.3956092
  H                  2.7814274     1.7840504     1.6112082
  H                  3.0012634     2.1913594     3.0926282
}
memory 16GB
set_num_threads(8)
psi4_io.set_default_path("/scratch/Psi4-ligand")
set maxiter 500
set freeze_core True
set PROPERTIES_ORIGIN ["COM"]
e_dim= energy('wb97x-d/aug-cc-pVDZ',bsse_type='cp')

psi4.print_out('CP Energy = %10.6f' % (e_dim))
clean()
--------------------------------------------------------------------------

    Molecular point group: c1
  Charge       = 0
  Multiplicity = 1
  Basis Set: AUG-CC-PVDZ
    Blend: AUG-CC-PVDZ
  Basis Set: (AUG-CC-PVDZ AUX)
    Blend: AUG-CC-PVDZ-JKFIT
  @DF-RKS Final Energy:   -76.41947771563522
    Total Energy =                        -76.4194777156352387
    Molecular point group: c1
  Basis Set: AUG-CC-PVDZ
    Blend: AUG-CC-PVDZ
  Basis Set: (AUG-CC-PVDZ AUX)
    Blend: AUG-CC-PVDZ-JKFIT
  @DF-RKS Final Energy:   -76.41986617864086
    Total Energy =                        -76.4198661786408593
  Basis Set: AUG-CC-PVDZ
    Blend: AUG-CC-PVDZ
  Basis Set: (AUG-CC-PVDZ AUX)
    Blend: AUG-CC-PVDZ-JKFIT
  @DF-RKS Final Energy: -1188.20580438192542
    Total Energy =                      -1188.2058043819254181
  Multiplicity = 1
  Basis Set: AUG-CC-PVDZ
    Blend: AUG-CC-PVDZ
  Basis Set: (AUG-CC-PVDZ AUX)
    Blend: AUG-CC-PVDZ-JKFIT
  @DF-RKS Final Energy: -1188.20538085620979
    Total Energy =                      -1188.2053808562095583
    Molecular point group: c1

    Geometry (in Angstrom), charge = 0, multiplicity = 1:

       Center              X                  Y                   Z               Mass
    ------------   -----------------  -----------------  -----------------  -----------------
         N           -1.025717986381    -1.601950525168     0.262659566271    14.003074004430
         C           -2.302577986381    -1.358491525168     0.695612566271    12.000000000000
         C           -2.784182986381     0.127251474832     0.605744566271    12.000000000000
         F           -3.858632986381     0.161518474832    -0.253922433729    18.998403162730
         F           -3.220934986381     0.499192474832     1.857888566271    18.998403162730
         C           -1.742273986381     1.193889474832     0.117782566271    12.000000000000
         C           -0.408876986381     0.708706474832    -0.305244433729    12.000000000000
         C            0.567726013619     1.621148474832    -0.759664433729    12.000000000000
         C            1.816880013619     1.178521474832    -1.211578433729    12.000000000000
         C            2.144369013619    -0.200892525168    -1.153220433729    12.000000000000
         C            1.187014013619    -1.111028525168    -0.655483433729    12.000000000000
         C           -0.080450986381    -0.673607525168    -0.234119433729    12.000000000000
         S            3.693601013619    -0.878740525168    -1.675809433729    31.972071174400
         C            4.814600013619    -0.512370525168    -0.302397433729    12.000000000000
         O           -3.000957986381    -2.272018525168     1.109984566271    15.994914619570
         O           -2.037307986381     2.384674474832     0.080878566271    15.994914619570
         H            2.524428013619     1.911617474832    -1.596912433729     1.007825032230
         H            0.309519013619     2.680496474832    -0.788285433729     1.007825032230
         H           -0.775882986381    -2.578546525168     0.336894566271     1.007825032230
         H            1.432074013619    -2.172903525168    -0.605558433729     1.007825032230
         H            5.151365013619     0.526129474832    -0.378468433729     1.007825032230
         H            4.294893013619    -0.656500525168     0.650446566271     1.007825032230
         H            5.676198013619    -1.184522525168    -0.355089433729     1.007825032230
         O            3.047450413619     1.400221874832     2.312963766271    15.994914619570
         H            2.524264413619     1.574841874832     1.528562766271     1.007825032230
         H            2.744100413619     1.982150874832     3.009982766271     1.007825032230

  Charge       = 0
  Multiplicity = 1
  Basis Set: AUG-CC-PVDZ
    Blend: AUG-CC-PVDZ
  Basis Set: (AUG-CC-PVDZ AUX)
    Blend: AUG-CC-PVDZ-JKFIT

    Orbital Energies [Eh]
    ---------------------

    Doubly Occupied:

       1A    -89.068460     2A    -24.877305     3A    -24.875522
       4A    -19.306146     5A    -19.289461     6A    -19.288085
       7A    -14.538882     8A    -10.511675     9A    -10.457146
      10A    -10.438593    11A    -10.410826    12A    -10.381886
      13A    -10.359352    14A    -10.356269    15A    -10.352351
      16A    -10.347754    17A    -10.339438    18A     -8.085984
      19A     -6.035880    20A     -6.031669    21A     -6.024795
      22A     -1.387692    23A     -1.331748    24A     -1.193048
      25A     -1.183916    26A     -1.130304    27A     -1.096549
      28A     -1.003618    29A     -0.939245    30A     -0.904477
      31A     -0.891613    32A     -0.867053    33A     -0.793107
      34A     -0.768554    35A     -0.754878    36A     -0.740832
      37A     -0.698308    38A     -0.681712    39A     -0.671737
      40A     -0.646087    41A     -0.643604    42A     -0.631538
      43A     -0.593393    44A     -0.581535    45A     -0.569852
      46A     -0.565344    47A     -0.559737    48A     -0.557407
      49A     -0.553177    50A     -0.538386    51A     -0.530027
      52A     -0.526492    53A     -0.520754    54A     -0.513326
      55A     -0.502694    56A     -0.497665    57A     -0.489091
      58A     -0.480332    59A     -0.476966    60A     -0.442335
      61A     -0.421490    62A     -0.417659    63A     -0.400067
      64A     -0.374032    65A     -0.371005    66A     -0.343299
      67A     -0.330954

  @DF-RKS Final Energy: -1264.63025550379689

   => Energetics <=

    Nuclear Repulsion Energy =           1319.4537893202650594
    One-Electron Energy =               -4357.6369958573277472
    Two-Electron Energy =                1869.5902538173043013
    DFT Exchange-Correlation Energy =     -96.0215441938697154
    Empirical Dispersion Energy =          -0.0157585901687925
    VV10 Nonlocal Energy =                  0.0000000000000000
    Total Energy =                      -1264.6302555037968887

  Dipole Moment: [D]
     X:     5.3665      Y:     0.0140      Z:    -0.6703     Total:     5.4082

*** Psi4 exiting successfully. Buy a developer a beer!
