                               Psi4 1.3.2 release

  ==> Input File <==

--------------------------------------------------------------------------
molecule {
0 1
  N                 -0.9822580    -1.4639280     0.2190630
  C                 -2.2712640    -1.1572690     0.5671010
  C                 -2.6379910     0.3633640     0.5666410
  F                 -3.6579160     0.5420250    -0.3406010
  F                 -3.1158940     0.6744710     1.8203130
  C                 -1.4959220     1.3801050     0.2166770
  C                 -0.1658920     0.8276470    -0.1304690
  C                  0.8956910     1.6960470    -0.4710440
  C                  2.1574060     1.1914630    -0.8096280
  C                  2.3864770    -0.2103720    -0.8315260
  C                  1.3290480    -1.0771030    -0.4793250
  C                  0.0633070    -0.5762150    -0.1288800
  S                  3.9095680    -0.9821520    -1.3105370
  C                  5.2125960    -0.0491170    -0.4644460
  O                 -3.0629410    -2.0442960     0.8512630
  O                 -1.7123770     2.5882940     0.2314480
  H                  2.9425560     1.8959600    -1.0821180
  H                  0.7067560     2.7699810    -0.4684470
  H                 -0.8101430    -2.4600130     0.2293830
  H                  1.4909330    -2.1558700    -0.5004420
  H                  5.4914020     0.8142880    -1.0760090
  H                  4.8544660     0.2897710     0.5124480
  H                  6.0830610    -0.6978050    -0.3277450
--
0 1
  O                  2.9555476     1.0571452     1.6608162
  H                  2.3232826     0.3880902     1.9247482
  H                  2.4938736     1.8942032     1.6031422
}
memory 16GB
set_num_threads(8)
psi4_io.set_default_path("/scratch/Psi4-ligand")
set maxiter 500
set freeze_core True
set PROPERTIES_ORIGIN ["COM"]
e_dim= energy('wb97x-d/aug-cc-pVDZ',bsse_type='cp')

psi4.print_out('CP Energy = %10.6f' % (e_dim))
clean()
--------------------------------------------------------------------------

    Molecular point group: c1
  Charge       = 0
  Multiplicity = 1
  Basis Set: AUG-CC-PVDZ
    Blend: AUG-CC-PVDZ
  Basis Set: (AUG-CC-PVDZ AUX)
    Blend: AUG-CC-PVDZ-JKFIT
  @DF-RKS Final Energy:   -76.41950391803041
    Total Energy =                        -76.4195039180304008
    Molecular point group: c1
  Basis Set: AUG-CC-PVDZ
    Blend: AUG-CC-PVDZ
  Basis Set: (AUG-CC-PVDZ AUX)
    Blend: AUG-CC-PVDZ-JKFIT
  @DF-RKS Final Energy:   -76.42017009901866
    Total Energy =                        -76.4201700990186623
  Basis Set: AUG-CC-PVDZ
    Blend: AUG-CC-PVDZ
  Basis Set: (AUG-CC-PVDZ AUX)
    Blend: AUG-CC-PVDZ-JKFIT
  @DF-RKS Final Energy: -1188.20835692510354
    Total Energy =                      -1188.2083569251035442
  Multiplicity = 1
  Basis Set: AUG-CC-PVDZ
    Blend: AUG-CC-PVDZ
  Basis Set: (AUG-CC-PVDZ AUX)
    Blend: AUG-CC-PVDZ-JKFIT
  @DF-RKS Final Energy: -1188.20775534684708
    Total Energy =                      -1188.2077553468470796
    Molecular point group: c1

    Geometry (in Angstrom), charge = 0, multiplicity = 1:

       Center              X                  Y                   Z               Mass
    ------------   -----------------  -----------------  -----------------  -----------------
         N           -1.154276535720    -1.572128785678     0.179204417158    14.003074004430
         C           -2.443282535720    -1.265469785678     0.527242417158    12.000000000000
         C           -2.810009535720     0.255163214322     0.526782417158    12.000000000000
         F           -3.829934535720     0.433824214322    -0.380459582842    18.998403162730
         F           -3.287912535720     0.566270214322     1.780454417158    18.998403162730
         C           -1.667940535720     1.271904214322     0.176818417158    12.000000000000
         C           -0.337910535720     0.719446214322    -0.170327582842    12.000000000000
         C            0.723672464280     1.587846214322    -0.510902582842    12.000000000000
         C            1.985387464280     1.083262214322    -0.849486582842    12.000000000000
         C            2.214458464280    -0.318572785678    -0.871384582842    12.000000000000
         C            1.157029464280    -1.185303785678    -0.519183582842    12.000000000000
         C           -0.108711535720    -0.684415785678    -0.168738582842    12.000000000000
         S            3.737549464280    -1.090352785678    -1.350395582842    31.972071174400
         C            5.040577464280    -0.157317785678    -0.504304582842    12.000000000000
         O           -3.234959535720    -2.152496785678     0.811404417158    15.994914619570
         O           -1.884395535720     2.480093214322     0.191589417158    15.994914619570
         H            2.770537464280     1.787759214322    -1.121976582842     1.007825032230
         H            0.534737464280     2.661780214322    -0.508305582842     1.007825032230
         H           -0.982161535720    -2.568213785678     0.189524417158     1.007825032230
         H            1.318914464280    -2.264070785678    -0.540300582842     1.007825032230
         H            5.319383464280     0.706087214322    -1.115867582842     1.007825032230
         H            4.682447464280     0.181570214322     0.472589417158     1.007825032230
         H            5.911042464280    -0.806005785678    -0.367603582842     1.007825032230
         O            2.783529064280     0.948944414322     1.620957617158    15.994914619570
         H            2.151264064280     0.279889414322     1.884889617158     1.007825032230
         H            2.321855064280     1.786002414322     1.563283617158     1.007825032230

  Charge       = 0
  Multiplicity = 1
  Basis Set: AUG-CC-PVDZ
    Blend: AUG-CC-PVDZ
  Basis Set: (AUG-CC-PVDZ AUX)
    Blend: AUG-CC-PVDZ-JKFIT

    Orbital Energies [Eh]
    ---------------------

    Doubly Occupied:

       1A    -89.073918     2A    -24.873499     3A    -24.873065
       4A    -19.299535     5A    -19.292220     6A    -19.286613
       7A    -14.535917     8A    -10.507916     9A    -10.454214
      10A    -10.432926    11A    -10.406608    12A    -10.380750
      13A    -10.351736    14A    -10.348687    15A    -10.347707
      16A    -10.342403    17A    -10.338646    18A     -8.091201
      19A     -6.040977    20A     -6.036605    21A     -6.030455
      22A     -1.384499    23A     -1.328649    24A     -1.190299
      25A     -1.177929    26A     -1.140090    27A     -1.093257
      28A     -0.998784    29A     -0.936014    30A     -0.902076
      31A     -0.886487    32A     -0.865124    33A     -0.791654
      34A     -0.763887    35A     -0.751051    36A     -0.739680
      37A     -0.694759    38A     -0.678435    39A     -0.668579
      40A     -0.652493    41A     -0.642958    42A     -0.627183
      43A     -0.589122    44A     -0.579019    45A     -0.567202
      46A     -0.562834    47A     -0.556043    48A     -0.553710
      49A     -0.551705    50A     -0.537035    51A     -0.534208
      52A     -0.521129    53A     -0.518382    54A     -0.512078
      55A     -0.499104    56A     -0.496093    57A     -0.491926
      58A     -0.478089    59A     -0.473801    60A     -0.448960
      61A     -0.427125    62A     -0.404892    63A     -0.396462
      64A     -0.383005    65A     -0.369465    66A     -0.338808
      67A     -0.316501

  @DF-RKS Final Energy: -1264.62324121759389

   => Energetics <=

    Nuclear Repulsion Energy =           1342.4660917737469390
    One-Electron Energy =               -4403.8871695468824328
    Two-Electron Energy =                1892.8561835376690397
    DFT Exchange-Correlation Energy =     -96.0406168581757953
    Empirical Dispersion Energy =          -0.0177301239517879
    VV10 Nonlocal Energy =                  0.0000000000000000
    Total Energy =                      -1264.6232412175941136

  Dipole Moment: [D]
     X:     6.3046      Y:    -0.5767      Z:    -0.4968     Total:     6.3504

*** Psi4 exiting successfully. Buy a developer a beer!
