                               Psi4 1.3.2 release

  ==> Input File <==

--------------------------------------------------------------------------
molecule {
0 1
  N                 -0.8910240    -1.4030780    -0.0050850
  C                 -2.1808660    -1.1218050     0.3703250
  C                 -2.4689910     0.3847960     0.6739010
  F                 -3.7849310     0.6704210     0.3591430
  F                 -2.3291420     0.5634900     2.0316330
  C                 -1.5277770     1.4100670    -0.0475910
  C                 -0.1824620     0.9149700    -0.4256940
  C                  0.7873200     1.8015830    -0.9424290
  C                  2.0693580     1.3486090    -1.2791370
  C                  2.4018320    -0.0232130    -1.1337320
  C                  1.4130960    -0.9230310    -0.6803090
  C                  0.1246030    -0.4738350    -0.3445350
  S                  3.9885200    -0.7054780    -1.5137690
  C                  4.9737920    -0.3323170    -0.0410660
  O                 -3.0031200    -2.0217960     0.5026800
  O                 -1.8575620     2.5856590    -0.1852130
  H                  2.7984520     2.0707080    -1.6457550
  H                  0.5177650     2.8518550    -1.0566600
  H                 -0.7268170    -2.3929600    -0.1238800
  H                  1.6556850    -1.9812730    -0.5767180
  H                  5.1536430     0.7460270     0.0098090
  H                  4.4330830    -0.6596020     0.8528180
  H                  5.9285950    -0.8622630    -0.1078720
--
0 1
  O                 -2.9140699    -0.4099059    -2.4646940
  H                 -3.4811099    -1.1753389    -2.3420340
  H                 -3.4484169     0.2858031    -2.8520120
}
memory 16GB
set_num_threads(8)
psi4_io.set_default_path("/scratch/Psi4-ligand")
set maxiter 500
set freeze_core True
set PROPERTIES_ORIGIN ["COM"]
e_dim= energy('wb97x-d/aug-cc-pVDZ',bsse_type='cp')

psi4.print_out('CP Energy = %10.6f' % (e_dim))
clean()
--------------------------------------------------------------------------

    Molecular point group: c1
  Charge       = 0
  Multiplicity = 1
  Basis Set: AUG-CC-PVDZ
    Blend: AUG-CC-PVDZ
  Basis Set: (AUG-CC-PVDZ AUX)
    Blend: AUG-CC-PVDZ-JKFIT
  @DF-RKS Final Energy:   -76.41957322375198
    Total Energy =                        -76.4195732237519678
    Molecular point group: c1
  Basis Set: AUG-CC-PVDZ
    Blend: AUG-CC-PVDZ
  Basis Set: (AUG-CC-PVDZ AUX)
    Blend: AUG-CC-PVDZ-JKFIT
  @DF-RKS Final Energy:   -76.41994762365933
    Total Energy =                        -76.4199476236593256
  Basis Set: AUG-CC-PVDZ
    Blend: AUG-CC-PVDZ
  Basis Set: (AUG-CC-PVDZ AUX)
    Blend: AUG-CC-PVDZ-JKFIT
  @DF-RKS Final Energy: -1188.20525922271941
    Total Energy =                      -1188.2052592227194054
  Multiplicity = 1
  Basis Set: AUG-CC-PVDZ
    Blend: AUG-CC-PVDZ
  Basis Set: (AUG-CC-PVDZ AUX)
    Blend: AUG-CC-PVDZ-JKFIT
  @DF-RKS Final Energy: -1188.20489392441937
    Total Energy =                      -1188.2048939244193662
    Molecular point group: c1

    Geometry (in Angstrom), charge = 0, multiplicity = 1:

       Center              X                  Y                   Z               Mass
    ------------   -----------------  -----------------  -----------------  -----------------
         N           -0.708591596126    -1.473591648807     0.345454040187    14.003074004430
         C           -1.998433596126    -1.192318648807     0.720864040187    12.000000000000
         C           -2.286558596126     0.314282351193     1.024440040187    12.000000000000
         F           -3.602498596126     0.599907351193     0.709682040187    18.998403162730
         F           -2.146709596126     0.492976351193     2.382172040187    18.998403162730
         C           -1.345344596126     1.339553351193     0.302948040187    12.000000000000
         C           -0.000029596126     0.844456351193    -0.075154959813    12.000000000000
         C            0.969752403874     1.731069351193    -0.591889959813    12.000000000000
         C            2.251790403874     1.278095351193    -0.928597959813    12.000000000000
         C            2.584264403874    -0.093726648807    -0.783192959813    12.000000000000
         C            1.595528403874    -0.993544648807    -0.329769959813    12.000000000000
         C            0.307035403874    -0.544348648807     0.006004040187    12.000000000000
         S            4.170952403874    -0.775991648807    -1.163229959813    31.972071174400
         C            5.156224403874    -0.402830648807     0.309473040187    12.000000000000
         O           -2.820687596126    -2.092309648807     0.853219040187    15.994914619570
         O           -1.675129596126     2.515145351193     0.165326040187    15.994914619570
         H            2.980884403874     2.000194351193    -1.295215959813     1.007825032230
         H            0.700197403874     2.781341351193    -0.706120959813     1.007825032230
         H           -0.544384596126    -2.463473648807     0.226659040187     1.007825032230
         H            1.838117403874    -2.051786648807    -0.226178959813     1.007825032230
         H            5.336075403874     0.675513351193     0.360348040187     1.007825032230
         H            4.615515403874    -0.730115648807     1.203357040187     1.007825032230
         H            6.111027403874    -0.932776648807     0.242667040187     1.007825032230
         O           -2.731637496126    -0.480419548807    -2.114154959813    15.994914619570
         H           -3.298677496126    -1.245852548807    -1.991494959813     1.007825032230
         H           -3.265984496126     0.215289451193    -2.501472959813     1.007825032230

  Charge       = 0
  Multiplicity = 1
  Basis Set: AUG-CC-PVDZ
    Blend: AUG-CC-PVDZ
  Basis Set: (AUG-CC-PVDZ AUX)
    Blend: AUG-CC-PVDZ-JKFIT

    Orbital Energies [Eh]
    ---------------------

    Doubly Occupied:

       1A    -89.064595     2A    -24.874379     3A    -24.860850
       4A    -19.296951     5A    -19.289086     6A    -19.282194
       7A    -14.528206     8A    -10.502170     9A    -10.450203
      10A    -10.429473    11A    -10.399548    12A    -10.371871
      13A    -10.348710    14A    -10.344904    15A    -10.342722
      16A    -10.341036    17A    -10.337029    18A     -8.082079
      19A     -6.031940    20A     -6.027824    21A     -6.020873
      22A     -1.379302    23A     -1.320228    24A     -1.183046
      25A     -1.173261    26A     -1.130496    27A     -1.085385
      28A     -0.993026    29A     -0.931536    30A     -0.896850
      31A     -0.881168    32A     -0.860132    33A     -0.786140
      34A     -0.758096    35A     -0.744563    36A     -0.733588
      37A     -0.689037    38A     -0.670418    39A     -0.661995
      40A     -0.641708    41A     -0.636301    42A     -0.622192
      43A     -0.584016    44A     -0.573528    45A     -0.562426
      46A     -0.556773    47A     -0.550784    48A     -0.548995
      49A     -0.541795    50A     -0.533533    51A     -0.529013
      52A     -0.521671    53A     -0.510235    54A     -0.505474
      55A     -0.494744    56A     -0.491830    57A     -0.487200
      58A     -0.474209    59A     -0.467147    60A     -0.434920
      61A     -0.417720    62A     -0.413916    63A     -0.391893
      64A     -0.365447    65A     -0.360998    66A     -0.333115
      67A     -0.326629

  @DF-RKS Final Energy: -1264.63423208448648

   => Energetics <=

    Nuclear Repulsion Energy =           1339.8748101794835748
    One-Electron Energy =               -4399.5145645361653806
    Two-Electron Energy =                1891.0342314775064096
    DFT Exchange-Correlation Energy =     -96.0123991299336410
    Empirical Dispersion Energy =          -0.0163100753775482
    VV10 Nonlocal Energy =                  0.0000000000000000
    Total Energy =                      -1264.6342320844864844

  Dipole Moment: [D]
     X:     4.3662      Y:    -1.1177      Z:    -1.3163     Total:     4.6952

*** Psi4 exiting successfully. Buy a developer a beer!
