                               Psi4 1.3.2 release

  ==> Input File <==

--------------------------------------------------------------------------
molecule {
0 1
  N                 -0.8664290    -1.2589580    -0.1536890
  C                 -2.1480460    -0.9706410     0.2378410
  C                 -2.4007690     0.5145350     0.6579700
  F                 -3.6850840     0.8694240     0.2915950
  F                 -2.3353680     0.5658950     2.0315300
  C                 -1.3937820     1.5693870     0.0855650
  C                 -0.0656290     1.0595950    -0.3300500
  C                  0.9465510     1.9559480    -0.7385460
  C                  2.2136610     1.4889290    -1.1106430
  C                  2.4907560     0.0971820    -1.1056990
  C                  1.4623780    -0.8043860    -0.7556460
  C                  0.1875990    -0.3407930    -0.3880530
  S                  4.0542370    -0.6049660    -1.5424950
  C                  5.0346590    -0.4289270    -0.0306500
  O                 -3.0063170    -1.8468130     0.2574760
  O                 -1.6655360     2.7669320     0.0871550
  H                  2.9744450     2.2152280    -1.3953660
  H                  0.7201870     3.0225720    -0.7441760
  H                 -0.7355770    -2.2367310    -0.3731030
  H                  1.6634470    -1.8765260    -0.7569760
  H                  5.2834860     0.6263530     0.1168130
  H                  4.4568290    -0.7941620     0.8239960
  H                  5.9530340    -1.0151490    -0.1306800
--
0 1
  O                 -3.1329091    -0.3324094    -2.6268792
  H                 -3.5281731    -1.0694034    -2.1535172
  H                 -3.8308171     0.2910026    -2.8336032
}
memory 16GB
set_num_threads(8)
psi4_io.set_default_path("/scratch/Psi4-ligand")
set maxiter 500
set freeze_core True
set PROPERTIES_ORIGIN ["COM"]
e_dim= energy('wb97x-d/aug-cc-pVDZ',bsse_type='cp')

psi4.print_out('CP Energy = %10.6f' % (e_dim))
clean()
--------------------------------------------------------------------------

    Molecular point group: c1
  Charge       = 0
  Multiplicity = 1
  Basis Set: AUG-CC-PVDZ
    Blend: AUG-CC-PVDZ
  Basis Set: (AUG-CC-PVDZ AUX)
    Blend: AUG-CC-PVDZ-JKFIT
  @DF-RKS Final Energy:   -76.41953281155820
    Total Energy =                        -76.4195328115581987
    Molecular point group: c1
  Basis Set: AUG-CC-PVDZ
    Blend: AUG-CC-PVDZ
  Basis Set: (AUG-CC-PVDZ AUX)
    Blend: AUG-CC-PVDZ-JKFIT
  @DF-RKS Final Energy:   -76.41985258934206
    Total Energy =                        -76.4198525893420566
  Basis Set: AUG-CC-PVDZ
    Blend: AUG-CC-PVDZ
  Basis Set: (AUG-CC-PVDZ AUX)
    Blend: AUG-CC-PVDZ-JKFIT
  @DF-RKS Final Energy: -1188.20526908402690
    Total Energy =                      -1188.2052690840268951
  Multiplicity = 1
  Basis Set: AUG-CC-PVDZ
    Blend: AUG-CC-PVDZ
  Basis Set: (AUG-CC-PVDZ AUX)
    Blend: AUG-CC-PVDZ-JKFIT
  @DF-RKS Final Energy: -1188.20494120168746
    Total Energy =                      -1188.2049412016874612
    Molecular point group: c1

    Geometry (in Angstrom), charge = 0, multiplicity = 1:

       Center              X                  Y                   Z               Mass
    ------------   -----------------  -----------------  -----------------  -----------------
         N           -0.741005218430    -1.444932621402     0.202892309514    14.003074004430
         C           -2.022622218430    -1.156615621402     0.594422309514    12.000000000000
         C           -2.275345218430     0.328560378598     1.014551309514    12.000000000000
         F           -3.559660218430     0.683449378598     0.648176309514    18.998403162730
         F           -2.209944218430     0.379920378598     2.388111309514    18.998403162730
         C           -1.268358218430     1.383412378598     0.442146309514    12.000000000000
         C            0.059794781570     0.873620378598     0.026531309514    12.000000000000
         C            1.071974781570     1.769973378598    -0.381964690486    12.000000000000
         C            2.339084781570     1.302954378598    -0.754061690486    12.000000000000
         C            2.616179781570    -0.088792621402    -0.749117690486    12.000000000000
         C            1.587801781570    -0.990360621402    -0.399064690486    12.000000000000
         C            0.313022781570    -0.526767621402    -0.031471690486    12.000000000000
         S            4.179660781570    -0.790940621402    -1.185913690486    31.972071174400
         C            5.160082781570    -0.614901621402     0.325931309514    12.000000000000
         O           -2.880893218430    -2.032787621402     0.614057309514    15.994914619570
         O           -1.540112218430     2.580957378598     0.443736309514    15.994914619570
         H            3.099868781570     2.029253378598    -1.038784690486     1.007825032230
         H            0.845610781570     2.836597378598    -0.387594690486     1.007825032230
         H           -0.610153218430    -2.422705621402    -0.016521690486     1.007825032230
         H            1.788870781570    -2.062500621402    -0.400394690486     1.007825032230
         H            5.408909781570     0.440378378598     0.473394309514     1.007825032230
         H            4.582252781570    -0.980136621402     1.180577309514     1.007825032230
         H            6.078457781570    -1.201123621402     0.225901309514     1.007825032230
         O           -3.007485318430    -0.518384021402    -2.270297890486    15.994914619570
         H           -3.402749318430    -1.255378021402    -1.796935890486     1.007825032230
         H           -3.705393318430     0.105027978598    -2.477021890486     1.007825032230

  Charge       = 0
  Multiplicity = 1
  Basis Set: AUG-CC-PVDZ
    Blend: AUG-CC-PVDZ
  Basis Set: (AUG-CC-PVDZ AUX)
    Blend: AUG-CC-PVDZ-JKFIT

    Orbital Energies [Eh]
    ---------------------

    Doubly Occupied:

       1A    -89.066458     2A    -24.878114     3A    -24.866271
       4A    -19.300302     5A    -19.287775     6A    -19.279886
       7A    -14.533387     8A    -10.506810     9A    -10.455612
      10A    -10.432629    11A    -10.403005    12A    -10.374661
      13A    -10.352051    14A    -10.347750    15A    -10.345823
      16A    -10.342638    17A    -10.339774    18A     -8.083952
      19A     -6.033825    20A     -6.029691    21A     -6.022732
      22A     -1.383840    23A     -1.325507    24A     -1.189040
      25A     -1.176974    26A     -1.121267    27A     -1.090533
      28A     -0.996146    29A     -0.934356    30A     -0.900500
      31A     -0.884461    32A     -0.863421    33A     -0.789130
      34A     -0.762320    35A     -0.748756    36A     -0.736796
      37A     -0.692665    38A     -0.674893    39A     -0.666911
      40A     -0.640315    41A     -0.634065    42A     -0.625906
      43A     -0.587308    44A     -0.576322    45A     -0.566857
      46A     -0.561097    47A     -0.553789    48A     -0.551895
      49A     -0.546626    50A     -0.536932    51A     -0.530853
      52A     -0.524657    53A     -0.515179    54A     -0.509228
      55A     -0.497892    56A     -0.490971    57A     -0.482299
      58A     -0.477294    59A     -0.470406    60A     -0.438156
      61A     -0.417212    62A     -0.409073    63A     -0.396757
      64A     -0.369524    65A     -0.363838    66A     -0.336666
      67A     -0.328963

  @DF-RKS Final Energy: -1264.63325707137028

   => Energetics <=

    Nuclear Repulsion Energy =           1333.1356600476462972
    One-Electron Energy =               -4385.6780951484852267
    Two-Electron Energy =                1883.9397545411275132
    DFT Exchange-Correlation Energy =     -96.0145390977634179
    Empirical Dispersion Energy =          -0.0160374138956919
    VV10 Nonlocal Energy =                  0.0000000000000000
    Total Energy =                      -1264.6332570713702808

  Dipole Moment: [D]
     X:     4.6795      Y:    -1.2601      Z:    -0.2962     Total:     4.8552

*** Psi4 exiting successfully. Buy a developer a beer!
