                               Psi4 1.3.2 release

  ==> Input File <==

--------------------------------------------------------------------------
molecule {
0 1
  N                 -0.8428290    -1.4083820     0.0066210
  C                 -2.1332900    -1.1277960     0.3798720
  C                 -2.4292590     0.3838470     0.6455610
  F                 -3.7509640     0.6635760     0.3443400
  F                 -2.2868720     0.5840850     2.0003210
  C                 -1.4867430     1.4036230    -0.0816350
  C                 -0.1354400     0.9075720    -0.4373280
  C                  0.8340730     1.7890790    -0.9624210
  C                  2.1194540     1.3351410    -1.2846030
  C                  2.4560690    -0.0330230    -1.1146520
  C                  1.4670190    -0.9296050    -0.6545140
  C                  0.1734730    -0.4800210    -0.3372240
  S                  4.0482530    -0.7136320    -1.4755480
  C                  5.0229460    -0.3209240    -0.0008380
  O                 -2.9506990    -2.0270760     0.5335290
  O                 -1.8231240     2.5749750    -0.2454090
  H                  2.8479870     2.0541620    -1.6586360
  H                  0.5613700     2.8361600    -1.0959240
  H                 -0.6743700    -2.3995180    -0.0952840
  H                  1.7145800    -1.9843230    -0.5271240
  H                  5.0905510     0.7655620     0.1114950
  H                  4.5393410    -0.7545560     0.8800610
  H                  6.0261560    -0.7422870    -0.1142930
--
0 1
  O                 -2.6694662     0.0575750    -1.6323126
  H                 -3.3668532    -0.6017200    -1.6600856
  H                 -3.0217902     0.8661500    -2.0102536
}
memory 16GB
set_num_threads(8)
psi4_io.set_default_path("/scratch/Psi4-ligand")
set maxiter 500
set freeze_core True
set PROPERTIES_ORIGIN ["COM"]
e_dim= energy('wb97x-d/aug-cc-pVDZ',bsse_type='cp')

psi4.print_out('CP Energy = %10.6f' % (e_dim))
clean()
--------------------------------------------------------------------------

    Molecular point group: c1
  Charge       = 0
  Multiplicity = 1
  Basis Set: AUG-CC-PVDZ
    Blend: AUG-CC-PVDZ
  Basis Set: (AUG-CC-PVDZ AUX)
    Blend: AUG-CC-PVDZ-JKFIT
  @DF-RKS Final Energy:   -76.41957583229164
    Total Energy =                        -76.4195758322916276
    Molecular point group: c1
  Basis Set: AUG-CC-PVDZ
    Blend: AUG-CC-PVDZ
  Basis Set: (AUG-CC-PVDZ AUX)
    Blend: AUG-CC-PVDZ-JKFIT
  @DF-RKS Final Energy:   -76.42061987148260
    Total Energy =                        -76.4206198714826002
  Basis Set: AUG-CC-PVDZ
    Blend: AUG-CC-PVDZ
  Basis Set: (AUG-CC-PVDZ AUX)
    Blend: AUG-CC-PVDZ-JKFIT
  @DF-RKS Final Energy: -1188.20607935280873
    Total Energy =                      -1188.2060793528087288
  Multiplicity = 1
  Basis Set: AUG-CC-PVDZ
    Blend: AUG-CC-PVDZ
  Basis Set: (AUG-CC-PVDZ AUX)
    Blend: AUG-CC-PVDZ-JKFIT
  @DF-RKS Final Energy: -1188.20489193470144
    Total Energy =                      -1188.2048919347014362
    Molecular point group: c1

    Geometry (in Angstrom), charge = 0, multiplicity = 1:

       Center              X                  Y                   Z               Mass
    ------------   -----------------  -----------------  -----------------  -----------------
         N           -0.721572441719    -1.508083353617     0.299428701510    14.003074004430
         C           -2.012033441719    -1.227497353617     0.672679701510    12.000000000000
         C           -2.308002441719     0.284145646383     0.938368701510    12.000000000000
         F           -3.629707441719     0.563874646383     0.637147701510    18.998403162730
         F           -2.165615441719     0.484383646383     2.293128701510    18.998403162730
         C           -1.365486441719     1.303921646383     0.211172701510    12.000000000000
         C           -0.014183441719     0.807870646383    -0.144520298490    12.000000000000
         C            0.955329558281     1.689377646383    -0.669613298490    12.000000000000
         C            2.240710558281     1.235439646383    -0.991795298490    12.000000000000
         C            2.577325558281    -0.132724353617    -0.821844298490    12.000000000000
         C            1.588275558281    -1.029306353617    -0.361706298490    12.000000000000
         C            0.294729558281    -0.579722353617    -0.044416298490    12.000000000000
         S            4.169509558281    -0.813333353617    -1.182740298490    31.972071174400
         C            5.144202558281    -0.420625353617     0.291969701510    12.000000000000
         O           -2.829442441719    -2.126777353617     0.826336701510    15.994914619570
         O           -1.701867441719     2.475273646383     0.047398701510    15.994914619570
         H            2.969243558281     1.954460646383    -1.365828298490     1.007825032230
         H            0.682626558281     2.736458646383    -0.803116298490     1.007825032230
         H           -0.553113441719    -2.499219353617     0.197523701510     1.007825032230
         H            1.835836558281    -2.084024353617    -0.234316298490     1.007825032230
         H            5.211807558281     0.665860646383     0.404302701510     1.007825032230
         H            4.660597558281    -0.854257353617     1.172868701510     1.007825032230
         H            6.147412558281    -0.841988353617     0.178514701510     1.007825032230
         O           -2.548209641719    -0.042126353617    -1.339504898490    15.994914619570
         H           -3.245596641719    -0.701421353617    -1.367277898490     1.007825032230
         H           -2.900533641719     0.766448646383    -1.717445898490     1.007825032230

  Charge       = 0
  Multiplicity = 1
  Basis Set: AUG-CC-PVDZ
    Blend: AUG-CC-PVDZ
  Basis Set: (AUG-CC-PVDZ AUX)
    Blend: AUG-CC-PVDZ-JKFIT

    Orbital Energies [Eh]
    ---------------------

    Doubly Occupied:

       1A    -89.063203     2A    -24.865515     3A    -24.854956
       4A    -19.305759     5A    -19.290693     6A    -19.279750
       7A    -14.524898     8A    -10.495996     9A    -10.447850
      10A    -10.427667    11A    -10.396759    12A    -10.369461
      13A    -10.346274    14A    -10.342375    15A    -10.340992
      16A    -10.339756    17A    -10.335287    18A     -8.080658
      19A     -6.030515    20A     -6.026404    21A     -6.019465
      22A     -1.374324    23A     -1.315917    24A     -1.183845
      25A     -1.170830    26A     -1.155273    27A     -1.082565
      28A     -0.990850    29A     -0.929388    30A     -0.894124
      31A     -0.878996    32A     -0.857778    33A     -0.784131
      34A     -0.756152    35A     -0.742400    36A     -0.731720
      37A     -0.687008    38A     -0.671898    39A     -0.666555
      40A     -0.659764    41A     -0.633755    42A     -0.620507
      43A     -0.581625    44A     -0.571586    45A     -0.567128
      46A     -0.557012    47A     -0.548544    48A     -0.547073
      49A     -0.537922    50A     -0.533383    51A     -0.527873
      52A     -0.519280    53A     -0.515202    54A     -0.505359
      55A     -0.500725    56A     -0.491356    57A     -0.483242
      58A     -0.471921    59A     -0.464977    60A     -0.434253
      61A     -0.424442    62A     -0.412647    63A     -0.389172
      64A     -0.362470    65A     -0.358675    66A     -0.331595
      67A     -0.325004

  @DF-RKS Final Energy: -1264.61790037183232

   => Energetics <=

    Nuclear Repulsion Energy =           1370.7425652741360409
    One-Electron Energy =               -4461.2806201428556960
    Two-Electron Energy =                1921.9992095497011633
    DFT Exchange-Correlation Energy =     -96.0618869554401016
    Empirical Dispersion Energy =          -0.0171680973734640
    VV10 Nonlocal Energy =                  0.0000000000000000
    Total Energy =                      -1264.6179003718323202

  Dipole Moment: [D]
     X:     4.1019      Y:    -0.8705      Z:    -1.7922     Total:     4.5601

*** Psi4 exiting successfully. Buy a developer a beer!
