                               Psi4 1.3.2 release

  ==> Input File <==

--------------------------------------------------------------------------
molecule {
0 1
  N                 -0.9782100    -1.3675700    -0.0527530
  C                 -2.2531490    -1.0840870     0.3652430
  C                 -2.5284270     0.4178140     0.7045670
  F                 -3.8206750     0.7286450     0.3229830
  F                 -2.4611000     0.5483650     2.0729670
  C                 -1.5431250     1.4604730     0.0715130
  C                 -0.2162180     0.9523050    -0.3492600
  C                  0.7709500     1.8438230    -0.8220770
  C                  2.0352310     1.3795420    -1.2057160
  C                  2.3341780    -0.0063160    -1.1452420
  C                  1.3275290    -0.9066280    -0.7343480
  C                  0.0540120    -0.4457660    -0.3585310
  S                  3.9004990    -0.7023180    -1.5798170
  C                  4.9455830    -0.3095440    -0.1541970
  O                 -3.0799340    -1.9783730     0.4939980
  O                 -1.8353400     2.6535240     0.0187490
  H                  2.7770320     2.1038670    -1.5404780
  H                  0.5276530     2.9054730    -0.8695930
  H                 -0.8317790    -2.3551090    -0.2096690
  H                  1.5449830    -1.9747330    -0.6936250
  H                  5.1390170     0.7673160    -0.1339530
  H                  4.4353630    -0.6104790     0.7663910
  H                  5.8915050    -0.8515650    -0.2448350
--
0 1
  O                 -2.9597190     0.2246620    -2.2336840
  H                 -3.6066310    -0.4836570    -2.2578610
  H                 -3.4198110     1.0442770    -2.4254650
}
memory 16GB
set_num_threads(8)
psi4_io.set_default_path("/scratch/Psi4-ligand")
set maxiter 500
set freeze_core True
set PROPERTIES_ORIGIN ["COM"]
e_dim= energy('wb97x-d/aug-cc-pVDZ',bsse_type='cp')

psi4.print_out('CP Energy = %10.6f' % (e_dim))
clean()
--------------------------------------------------------------------------

    Molecular point group: c1
  Charge       = 0
  Multiplicity = 1
  Basis Set: AUG-CC-PVDZ
    Blend: AUG-CC-PVDZ
  Basis Set: (AUG-CC-PVDZ AUX)
    Blend: AUG-CC-PVDZ-JKFIT
  @DF-RKS Final Energy:   -76.41956309446068
    Total Energy =                        -76.4195630944606847
    Molecular point group: c1
  Basis Set: AUG-CC-PVDZ
    Blend: AUG-CC-PVDZ
  Basis Set: (AUG-CC-PVDZ AUX)
    Blend: AUG-CC-PVDZ-JKFIT
  @DF-RKS Final Energy:   -76.42003925013104
    Total Energy =                        -76.4200392501310546
  Basis Set: AUG-CC-PVDZ
    Blend: AUG-CC-PVDZ
  Basis Set: (AUG-CC-PVDZ AUX)
    Blend: AUG-CC-PVDZ-JKFIT
  @DF-RKS Final Energy: -1188.20586362561630
    Total Energy =                      -1188.2058636256163027
  Multiplicity = 1
  Basis Set: AUG-CC-PVDZ
    Blend: AUG-CC-PVDZ
  Basis Set: (AUG-CC-PVDZ AUX)
    Blend: AUG-CC-PVDZ-JKFIT
  @DF-RKS Final Energy: -1188.20528024113901
    Total Energy =                      -1188.2052802411394623
    Molecular point group: c1

    Geometry (in Angstrom), charge = 0, multiplicity = 1:

       Center              X                  Y                   Z               Mass
    ------------   -----------------  -----------------  -----------------  -----------------
         N           -0.738308219337    -1.510152454778     0.270818539999    14.003074004430
         C           -2.013247219337    -1.226669454778     0.688814539999    12.000000000000
         C           -2.288525219337     0.275231545222     1.028138539999    12.000000000000
         F           -3.580773219337     0.586062545222     0.646554539999    18.998403162730
         F           -2.221198219337     0.405782545222     2.396538539999    18.998403162730
         C           -1.303223219337     1.317890545222     0.395084539999    12.000000000000
         C            0.023683780663     0.809722545222    -0.025688460001    12.000000000000
         C            1.010851780663     1.701240545222    -0.498505460001    12.000000000000
         C            2.275132780663     1.236959545222    -0.882144460001    12.000000000000
         C            2.574079780663    -0.148898454778    -0.821670460001    12.000000000000
         C            1.567430780663    -1.049210454778    -0.410776460001    12.000000000000
         C            0.293913780663    -0.588348454778    -0.034959460001    12.000000000000
         S            4.140400780663    -0.844900454778    -1.256245460001    31.972071174400
         C            5.185484780663    -0.452126454778     0.169374539999    12.000000000000
         O           -2.840032219337    -2.120955454778     0.817569539999    15.994914619570
         O           -1.595438219337     2.510941545222     0.342320539999    15.994914619570
         H            3.016933780663     1.961284545222    -1.216906460001     1.007825032230
         H            0.767554780663     2.762890545222    -0.546021460001     1.007825032230
         H           -0.591877219337    -2.497691454778     0.113902539999     1.007825032230
         H            1.784884780663    -2.117315454778    -0.370053460001     1.007825032230
         H            5.378918780663     0.624733545222     0.189618539999     1.007825032230
         H            4.675264780663    -0.753061454778     1.089962539999     1.007825032230
         H            6.131406780663    -0.994147454778     0.078736539999     1.007825032230
         O           -2.719817219337     0.082079545222    -1.910112460001    15.994914619570
         H           -3.366729219337    -0.626239454778    -1.934289460001     1.007825032230
         H           -3.179909219337     0.901694545222    -2.101893460001     1.007825032230

  Charge       = 0
  Multiplicity = 1
  Basis Set: AUG-CC-PVDZ
    Blend: AUG-CC-PVDZ
  Basis Set: (AUG-CC-PVDZ AUX)
    Blend: AUG-CC-PVDZ-JKFIT

    Orbital Energies [Eh]
    ---------------------

    Doubly Occupied:

       1A    -89.064877     2A    -24.872832     3A    -24.859914
       4A    -19.295308     5A    -19.289822     6A    -19.281555
       7A    -14.528063     8A    -10.501147     9A    -10.449253
      10A    -10.428942    11A    -10.398968    12A    -10.371613
      13A    -10.347544    14A    -10.344059    15A    -10.342290
      16A    -10.341043    17A    -10.336401    18A     -8.082366
      19A     -6.032215    20A     -6.028097    21A     -6.021185
      22A     -1.378221    23A     -1.319878    24A     -1.183406
      25A     -1.171907    26A     -1.132419    27A     -1.085214
      28A     -0.992675    29A     -0.931149    30A     -0.896055
      31A     -0.880564    32A     -0.859598    33A     -0.785983
      34A     -0.757707    35A     -0.744049    36A     -0.733482
      37A     -0.688293    38A     -0.670476    39A     -0.661577
      40A     -0.643835    41A     -0.636003    42A     -0.621679
      43A     -0.583371    44A     -0.572910    45A     -0.561612
      46A     -0.556886    47A     -0.550207    48A     -0.548449
      49A     -0.542469    50A     -0.532765    51A     -0.529451
      52A     -0.520777    53A     -0.511834    54A     -0.504695
      55A     -0.495477    56A     -0.492610    57A     -0.485909
      58A     -0.473491    59A     -0.466777    60A     -0.434599
      61A     -0.416883    62A     -0.414050    63A     -0.391308
      64A     -0.364881    65A     -0.361661    66A     -0.333353
      67A     -0.324934

  @DF-RKS Final Energy: -1264.63445468901682

   => Energetics <=

    Nuclear Repulsion Energy =           1346.7159704132550360
    One-Electron Energy =               -4413.2310507028505526
    Two-Electron Energy =                1897.9183952793348453
    DFT Exchange-Correlation Energy =     -96.0210330993362078
    Empirical Dispersion Energy =          -0.0167365794198542
    VV10 Nonlocal Energy =                  0.0000000000000000
    Total Energy =                      -1264.6344546890165930

  Dipole Moment: [D]
     X:     4.3507      Y:    -0.8246      Z:    -1.4416     Total:     4.6569

*** Psi4 exiting successfully. Buy a developer a beer!
