                               Psi4 1.3.2 release

  ==> Input File <==

--------------------------------------------------------------------------
molecule {
0 1
  N                 -0.9434020    -1.2946320    -0.0708730
  C                 -2.2086410    -1.0439180     0.3936770
  C                 -2.5064230     0.4442600     0.7696760
  F                 -3.7903720     0.7497380     0.3523190
  F                 -2.4836960     0.5330490     2.1429320
  C                 -1.5166830     1.5216170     0.2013870
  C                 -0.1964200     1.0409120    -0.2702800
  C                  0.7882390     1.9604880    -0.6925130
  C                  2.0449640     1.5210510    -1.1271190
  C                  2.3379690     0.1335820    -1.1724330
  C                  1.3372550    -0.7903110    -0.8016000
  C                  0.0734500    -0.3537710    -0.3679190
  S                  3.8924890    -0.5349890    -1.6856220
  C                  4.9258200    -0.3817870    -0.2070430
  O                 -3.0103620    -1.9559730     0.5455690
  O                 -1.8061590     2.7159920     0.2283820
  H                  2.7864760     2.2648640    -1.4172820
  H                  0.5494890     3.0238560    -0.6588960
  H                 -0.7909570    -2.2752920    -0.2609620
  H                  1.5516850    -1.8593380    -0.8390890
  H                  5.1500330     0.6747250    -0.0313260
  H                  4.3926260    -0.7947290     0.6550380
  H                  5.8560830    -0.9356900    -0.3635650
--
0 1
  O                 -2.6872056     0.3936580    -2.7969424
  H                 -3.6113596     0.4136720    -2.5374514
  H                 -2.5221646     1.1509840    -3.3605904
}
memory 16GB
set_num_threads(8)
psi4_io.set_default_path("/scratch/Psi4-ligand")
set maxiter 500
set freeze_core True
set PROPERTIES_ORIGIN ["COM"]
e_dim= energy('wb97x-d/aug-cc-pVDZ',bsse_type='cp')

psi4.print_out('CP Energy = %10.6f' % (e_dim))
clean()
--------------------------------------------------------------------------

    Molecular point group: c1
  Charge       = 0
  Multiplicity = 1
  Basis Set: AUG-CC-PVDZ
    Blend: AUG-CC-PVDZ
  Basis Set: (AUG-CC-PVDZ AUX)
    Blend: AUG-CC-PVDZ-JKFIT
  @DF-RKS Final Energy:   -76.41951278050669
    Total Energy =                        -76.4195127805066790
    Molecular point group: c1
  Basis Set: AUG-CC-PVDZ
    Blend: AUG-CC-PVDZ
  Basis Set: (AUG-CC-PVDZ AUX)
    Blend: AUG-CC-PVDZ-JKFIT
  @DF-RKS Final Energy:   -76.41977753691883
    Total Energy =                        -76.4197775369188008
  Basis Set: AUG-CC-PVDZ
    Blend: AUG-CC-PVDZ
  Basis Set: (AUG-CC-PVDZ AUX)
    Blend: AUG-CC-PVDZ-JKFIT
  @DF-RKS Final Energy: -1188.20556690564081
    Total Energy =                      -1188.2055669056408078
  Multiplicity = 1
  Basis Set: AUG-CC-PVDZ
    Blend: AUG-CC-PVDZ
  Basis Set: (AUG-CC-PVDZ AUX)
    Blend: AUG-CC-PVDZ-JKFIT
  @DF-RKS Final Energy: -1188.20527771333059
    Total Energy =                      -1188.2052777133303607
    Molecular point group: c1

    Geometry (in Angstrom), charge = 0, multiplicity = 1:

       Center              X                  Y                   Z               Mass
    ------------   -----------------  -----------------  -----------------  -----------------
         N           -0.738222155156    -1.516416912281     0.266295624596    14.003074004430
         C           -2.003461155156    -1.265702912281     0.730845624596    12.000000000000
         C           -2.301243155156     0.222475087719     1.106844624596    12.000000000000
         F           -3.585192155156     0.527953087719     0.689487624596    18.998403162730
         F           -2.278516155156     0.311264087719     2.480100624596    18.998403162730
         C           -1.311503155156     1.299832087719     0.538555624596    12.000000000000
         C            0.008759844844     0.819127087719     0.066888624596    12.000000000000
         C            0.993418844844     1.738703087719    -0.355344375404    12.000000000000
         C            2.250143844844     1.299266087719    -0.789950375404    12.000000000000
         C            2.543148844844    -0.088202912281    -0.835264375404    12.000000000000
         C            1.542434844844    -1.012095912281    -0.464431375404    12.000000000000
         C            0.278629844844    -0.575555912281    -0.030750375404    12.000000000000
         S            4.097668844844    -0.756773912281    -1.348453375404    31.972071174400
         C            5.130999844844    -0.603571912281     0.130125624596    12.000000000000
         O           -2.805182155156    -2.177757912281     0.882737624596    15.994914619570
         O           -1.600979155156     2.494207087719     0.565550624596    15.994914619570
         H            2.991655844844     2.043079087719    -1.080113375404     1.007825032230
         H            0.754668844844     2.802071087719    -0.321727375404     1.007825032230
         H           -0.585777155156    -2.497076912281     0.076206624596     1.007825032230
         H            1.756864844844    -2.081122912281    -0.501920375404     1.007825032230
         H            5.355212844844     0.452940087719     0.305842624596     1.007825032230
         H            4.597805844844    -1.016513912281     0.992206624596     1.007825032230
         H            6.061262844844    -1.157474912281    -0.026396375404     1.007825032230
         O           -2.482025755156     0.171873087719    -2.459773775404    15.994914619570
         H           -3.406179755156     0.191887087719    -2.200282775404     1.007825032230
         H           -2.316984755156     0.929199087719    -3.023421775404     1.007825032230

  Charge       = 0
  Multiplicity = 1
  Basis Set: AUG-CC-PVDZ
    Blend: AUG-CC-PVDZ
  Basis Set: (AUG-CC-PVDZ AUX)
    Blend: AUG-CC-PVDZ-JKFIT

    Orbital Energies [Eh]
    ---------------------

    Doubly Occupied:

       1A    -89.065624     2A    -24.875368     3A    -24.866931
       4A    -19.298455     5A    -19.287476     6A    -19.282086
       7A    -14.529277     8A    -10.505024     9A    -10.449691
      10A    -10.431512    11A    -10.401017    12A    -10.373200
      13A    -10.350201    14A    -10.346366    15A    -10.344021
      16A    -10.341954    17A    -10.338421    18A     -8.083120
      19A     -6.032983    20A     -6.028862    21A     -6.021911
      22A     -1.381719    23A     -1.324646    24A     -1.184204
      25A     -1.174807    26A     -1.128676    27A     -1.086588
      28A     -0.994505    29A     -0.932880    30A     -0.898094
      31A     -0.882651    32A     -0.861777    33A     -0.787876
      34A     -0.759725    35A     -0.746036    36A     -0.735461
      37A     -0.690607    38A     -0.673039    39A     -0.665229
      40A     -0.641036    41A     -0.637571    42A     -0.623581
      43A     -0.585235    44A     -0.574828    45A     -0.562221
      46A     -0.557994    47A     -0.551822    48A     -0.550205
      49A     -0.545986    50A     -0.535117    51A     -0.530196
      52A     -0.523225    53A     -0.514885    54A     -0.506267
      55A     -0.496476    56A     -0.490069    57A     -0.488556
      58A     -0.474922    59A     -0.468884    60A     -0.435641
      61A     -0.416618    62A     -0.415228    63A     -0.392725
      64A     -0.366735    65A     -0.362375    66A     -0.334041
      67A     -0.327729

  @DF-RKS Final Energy: -1264.63260750080440

   => Energetics <=

    Nuclear Repulsion Energy =           1333.8098185894548351
    One-Electron Energy =               -4387.2037286374606992
    Two-Electron Energy =                1884.7894628197809652
    DFT Exchange-Correlation Energy =     -96.0122888417351419
    Empirical Dispersion Energy =          -0.0158714308445122
    VV10 Nonlocal Energy =                  0.0000000000000000
    Total Energy =                      -1264.6326075008043972

  Dipole Moment: [D]
     X:     4.9946      Y:     0.0474      Z:    -1.6072     Total:     5.2471

*** Psi4 exiting successfully. Buy a developer a beer!
