                               Psi4 1.3.2 release

  ==> Input File <==

--------------------------------------------------------------------------
molecule {
0 1
  N                 -0.8387180    -1.4162130     0.0458400
  C                 -2.1154550    -1.1700410     0.4831380
  C                 -2.4438040     0.3309240     0.7680960
  F                 -3.7510470     0.5799800     0.4010040
  F                 -2.3528700     0.5214280     2.1279610
  C                 -1.5104670     1.3861230     0.0760970
  C                 -0.1641870     0.9190250    -0.3322220
  C                  0.7846930     1.8303990    -0.8440260
  C                  2.0635470     1.4015020    -1.2209700
  C                  2.4102440     0.0286610    -1.1285480
  C                  1.4388530    -0.8945880    -0.6844750
  C                  0.1548630    -0.4682690    -0.3040470
  S                  3.9942670    -0.6248470    -1.5665020
  C                  5.0031730    -0.3146060    -0.0954460
  O                 -2.8881790    -2.0925920     0.7016620
  O                 -1.8618720     2.5594270    -0.0437570
  H                  2.7790970     2.1421990    -1.5770730
  H                  0.5013350     2.8801220    -0.9241300
  H                 -0.6568400    -2.4034510    -0.0704010
  H                  1.6931890    -1.9532600    -0.6192490
  H                  5.0586660     0.7629650     0.0871740
  H                  4.5495160    -0.8123620     0.7672370
  H                  6.0085440    -0.7123100    -0.2628960
--
0 1
  O                 -2.7935352     0.5077110    -2.8480046
  H                 -3.1563042     1.3644450    -2.6125486
  H                 -2.2063962     0.6268380    -3.5958776
}
memory 16GB
set_num_threads(8)
psi4_io.set_default_path("/scratch/Psi4-ligand")
set maxiter 500
set freeze_core True
set PROPERTIES_ORIGIN ["COM"]
e_dim= energy('wb97x-d/aug-cc-pVDZ',bsse_type='cp')

psi4.print_out('CP Energy = %10.6f' % (e_dim))
clean()
--------------------------------------------------------------------------

    Molecular point group: c1
  Charge       = 0
  Multiplicity = 1
  Basis Set: AUG-CC-PVDZ
    Blend: AUG-CC-PVDZ
  Basis Set: (AUG-CC-PVDZ AUX)
    Blend: AUG-CC-PVDZ-JKFIT
  @DF-RKS Final Energy:   -76.41947838399579
    Total Energy =                        -76.4194783839957665
    Molecular point group: c1
  Basis Set: AUG-CC-PVDZ
    Blend: AUG-CC-PVDZ
  Basis Set: (AUG-CC-PVDZ AUX)
    Blend: AUG-CC-PVDZ-JKFIT
  @DF-RKS Final Energy:   -76.41974072595363
    Total Energy =                        -76.4197407259536021
  Basis Set: AUG-CC-PVDZ
    Blend: AUG-CC-PVDZ
  Basis Set: (AUG-CC-PVDZ AUX)
    Blend: AUG-CC-PVDZ-JKFIT
  @DF-RKS Final Energy: -1188.20557121383558
    Total Energy =                      -1188.2055712138355830
  Multiplicity = 1
  Basis Set: AUG-CC-PVDZ
    Blend: AUG-CC-PVDZ
  Basis Set: (AUG-CC-PVDZ AUX)
    Blend: AUG-CC-PVDZ-JKFIT
  @DF-RKS Final Energy: -1188.20524860286423
    Total Energy =                      -1188.2052486028642306
    Molecular point group: c1

    Geometry (in Angstrom), charge = 0, multiplicity = 1:

       Center              X                  Y                   Z               Mass
    ------------   -----------------  -----------------  -----------------  -----------------
         N           -0.691143330694    -1.551077763841     0.370297064114    14.003074004430
         C           -1.967880330694    -1.304905763841     0.807595064114    12.000000000000
         C           -2.296229330694     0.196059236159     1.092553064114    12.000000000000
         F           -3.603472330694     0.445115236159     0.725461064114    18.998403162730
         F           -2.205295330694     0.386563236159     2.452418064114    18.998403162730
         C           -1.362892330694     1.251258236159     0.400554064114    12.000000000000
         C           -0.016612330694     0.784160236159    -0.007764935886    12.000000000000
         C            0.932267669306     1.695534236159    -0.519568935886    12.000000000000
         C            2.211121669306     1.266637236159    -0.896512935886    12.000000000000
         C            2.557818669306    -0.106203763841    -0.804090935886    12.000000000000
         C            1.586427669306    -1.029452763841    -0.360017935886    12.000000000000
         C            0.302437669306    -0.603133763841     0.020410064114    12.000000000000
         S            4.141841669306    -0.759711763841    -1.242044935886    31.972071174400
         C            5.150747669306    -0.449470763841     0.229011064114    12.000000000000
         O           -2.740604330694    -2.227456763841     1.026119064114    15.994914619570
         O           -1.714297330694     2.424562236159     0.280700064114    15.994914619570
         H            2.926671669306     2.007334236159    -1.252615935886     1.007825032230
         H            0.648909669306     2.745257236159    -0.599672935886     1.007825032230
         H           -0.509265330694    -2.538315763841     0.254056064114     1.007825032230
         H            1.840763669306    -2.088124763841    -0.294791935886     1.007825032230
         H            5.206240669306     0.628100236159     0.411631064114     1.007825032230
         H            4.697090669306    -0.947226763841     1.091694064114     1.007825032230
         H            6.156118669306    -0.847174763841     0.061561064114     1.007825032230
         O           -2.645960530694     0.372846236159    -2.523547535886    15.994914619570
         H           -3.008729530694     1.229580236159    -2.288091535886     1.007825032230
         H           -2.058821530694     0.491973236159    -3.271420535886     1.007825032230

  Charge       = 0
  Multiplicity = 1
  Basis Set: AUG-CC-PVDZ
    Blend: AUG-CC-PVDZ
  Basis Set: (AUG-CC-PVDZ AUX)
    Blend: AUG-CC-PVDZ-JKFIT

    Orbital Energies [Eh]
    ---------------------

    Doubly Occupied:

       1A    -89.068090     2A    -24.875803     3A    -24.863835
       4A    -19.301396     5A    -19.284626     6A    -19.282227
       7A    -14.530670     8A    -10.504658     9A    -10.449830
      10A    -10.434111    11A    -10.403899    12A    -10.376198
      13A    -10.352997    14A    -10.349495    15A    -10.346827
      16A    -10.344135    17A    -10.341353    18A     -8.085570
      19A     -6.035439    20A     -6.031314    21A     -6.024357
      22A     -1.381636    23A     -1.323312    24A     -1.184522
      25A     -1.176979    26A     -1.125857    27A     -1.088180
      28A     -0.997286    29A     -0.935456    30A     -0.899916
      31A     -0.885295    32A     -0.863406    33A     -0.789769
      34A     -0.761672    35A     -0.747847    36A     -0.737200
      37A     -0.692157    38A     -0.674197    39A     -0.664515
      40A     -0.639691    41A     -0.638137    42A     -0.625098
      43A     -0.587968    44A     -0.577380    45A     -0.563112
      46A     -0.558882    47A     -0.554442    48A     -0.552244
      49A     -0.545567    50A     -0.535881    51A     -0.532024
      52A     -0.524301    53A     -0.512902    54A     -0.508271
      55A     -0.497655    56A     -0.491322    57A     -0.484968
      58A     -0.477255    59A     -0.470926    60A     -0.437702
      61A     -0.417542    62A     -0.413646    63A     -0.393525
      64A     -0.368474    65A     -0.364923    66A     -0.336453
      67A     -0.330168

  @DF-RKS Final Energy: -1264.63122681182358

   => Energetics <=

    Nuclear Repulsion Energy =           1331.5930892281926390
    One-Electron Energy =               -4382.5986727534000238
    Two-Electron Energy =                1882.4027903712399166
    DFT Exchange-Correlation Energy =     -96.0126647441397409
    Empirical Dispersion Energy =          -0.0157689137161000
    VV10 Nonlocal Energy =                  0.0000000000000000
    Total Energy =                      -1264.6312268118233533

  Dipole Moment: [D]
     X:     6.4961      Y:     0.4264      Z:    -1.6603     Total:     6.7185

*** Psi4 exiting successfully. Buy a developer a beer!
