                               Psi4 1.3.2 release

  ==> Input File <==

--------------------------------------------------------------------------
molecule {
0 1
  N                 -0.9676160    -1.4549240     0.2093220
  C                 -2.2516760    -1.1474040     0.5732680
  C                 -2.6107660     0.3750310     0.5977090
  F                 -3.6825620     0.5612650    -0.2465570
  F                 -3.0110640     0.6832050     1.8787410
  C                 -1.4864710     1.3888710     0.1866270
  C                 -0.1594330     0.8356860    -0.1693950
  C                  0.8949590     1.7010320    -0.5387870
  C                  2.1512030     1.1968010    -0.8958420
  C                  2.3936020    -0.2024380    -0.8646550
  C                  1.3398080    -1.0681870    -0.4980230
  C                  0.0735220    -0.5672840    -0.1515180
  S                  3.9172910    -0.9750520    -1.3417990
  C                  5.2135560    -0.0666170    -0.4589820
  O                 -3.0424390    -2.0342170     0.8612460
  O                 -1.7101850     2.5957460     0.1758760
  H                  2.9264970     1.8980460    -1.2020810
  H                  0.7003320     2.7739000    -0.5549490
  H                 -0.7969600    -2.4513040     0.2094560
  H                  1.5092480    -2.1455980    -0.4926220
  H                  5.4188490     0.8717440    -0.9825500
  H                  4.8876330     0.1426680     0.5640310
  H                  6.1202410    -0.6780710    -0.4326100
--
0 1
  O                  2.9345450     0.0478840     1.9459330
  H                  2.5558160    -0.6187870     2.5196550
  H                  2.3314900     0.7919450     1.9138150
}
memory 16GB
set_num_threads(8)
psi4_io.set_default_path("/scratch/Psi4-ligand")
set maxiter 500
set freeze_core True
set PROPERTIES_ORIGIN ["COM"]
e_dim= energy('wb97x-d/aug-cc-pVDZ',bsse_type='cp')

psi4.print_out('CP Energy = %10.6f' % (e_dim))
clean()
--------------------------------------------------------------------------

    Molecular point group: c1
  Charge       = 0
  Multiplicity = 1
  Basis Set: AUG-CC-PVDZ
    Blend: AUG-CC-PVDZ
  Basis Set: (AUG-CC-PVDZ AUX)
    Blend: AUG-CC-PVDZ-JKFIT
  @DF-RKS Final Energy:   -76.41948057930368
    Total Energy =                        -76.4194805793036807
    Molecular point group: c1
  Basis Set: AUG-CC-PVDZ
    Blend: AUG-CC-PVDZ
  Basis Set: (AUG-CC-PVDZ AUX)
    Blend: AUG-CC-PVDZ-JKFIT
  @DF-RKS Final Energy:   -76.41999560705293
    Total Energy =                        -76.4199956070529254
  Basis Set: AUG-CC-PVDZ
    Blend: AUG-CC-PVDZ
  Basis Set: (AUG-CC-PVDZ AUX)
    Blend: AUG-CC-PVDZ-JKFIT
  @DF-RKS Final Energy: -1188.20837648950669
    Total Energy =                      -1188.2083764895066906
  Multiplicity = 1
  Basis Set: AUG-CC-PVDZ
    Blend: AUG-CC-PVDZ
  Basis Set: (AUG-CC-PVDZ AUX)
    Blend: AUG-CC-PVDZ-JKFIT
  @DF-RKS Final Energy: -1188.20778476740497
    Total Energy =                      -1188.2077847674049735
    Molecular point group: c1

    Geometry (in Angstrom), charge = 0, multiplicity = 1:

       Center              X                  Y                   Z               Mass
    ------------   -----------------  -----------------  -----------------  -----------------
         N           -1.151503463632    -1.500044293783     0.156941640728    14.003074004430
         C           -2.435563463632    -1.192524293783     0.520887640728    12.000000000000
         C           -2.794653463632     0.329910706217     0.545328640728    12.000000000000
         F           -3.866449463632     0.516144706217    -0.298937359272    18.998403162730
         F           -3.194951463632     0.638084706217     1.826360640728    18.998403162730
         C           -1.670358463632     1.343750706217     0.134246640728    12.000000000000
         C           -0.343320463632     0.790565706217    -0.221775359272    12.000000000000
         C            0.711071536368     1.655911706217    -0.591167359272    12.000000000000
         C            1.967315536368     1.151680706217    -0.948222359272    12.000000000000
         C            2.209714536368    -0.247558293783    -0.917035359272    12.000000000000
         C            1.155920536368    -1.113307293783    -0.550403359272    12.000000000000
         C           -0.110365463632    -0.612404293783    -0.203898359272    12.000000000000
         S            3.733403536368    -1.020172293783    -1.394179359272    31.972071174400
         C            5.029668536368    -0.111737293783    -0.511362359272    12.000000000000
         O           -3.226326463632    -2.079337293783     0.808865640728    15.994914619570
         O           -1.894072463632     2.550625706217     0.123495640728    15.994914619570
         H            2.742609536368     1.852925706217    -1.254461359272     1.007825032230
         H            0.516444536368     2.728779706217    -0.607329359272     1.007825032230
         H           -0.980847463632    -2.496424293783     0.157075640728     1.007825032230
         H            1.325360536368    -2.190718293783    -0.545002359272     1.007825032230
         H            5.234961536368     0.826623706217    -1.034930359272     1.007825032230
         H            4.703745536368     0.097547706217     0.511650640728     1.007825032230
         H            5.936353536368    -0.723191293783    -0.484990359272     1.007825032230
         O            2.750657536368     0.002763706217     1.893552640728    15.994914619570
         H            2.371928536368    -0.663907293783     2.467274640728     1.007825032230
         H            2.147602536368     0.746824706217     1.861434640728     1.007825032230

  Charge       = 0
  Multiplicity = 1
  Basis Set: AUG-CC-PVDZ
    Blend: AUG-CC-PVDZ
  Basis Set: (AUG-CC-PVDZ AUX)
    Blend: AUG-CC-PVDZ-JKFIT

    Orbital Energies [Eh]
    ---------------------

    Doubly Occupied:

       1A    -89.070649     2A    -24.873546     3A    -24.872131
       4A    -19.298272     5A    -19.294541     6A    -19.286086
       7A    -14.535304     8A    -10.507330     9A    -10.453698
      10A    -10.431835    11A    -10.404787    12A    -10.379748
      13A    -10.350451    14A    -10.349856    15A    -10.344095
      16A    -10.339384    17A    -10.337242    18A     -8.087913
      19A     -6.037717    20A     -6.033375    21A     -6.027088
      22A     -1.384025    23A     -1.328217    24A     -1.189751
      25A     -1.176710    26A     -1.138820    27A     -1.092429
      28A     -0.996907    29A     -0.933885    30A     -0.900353
      31A     -0.884924    32A     -0.863413    33A     -0.789849
      34A     -0.762559    35A     -0.749935    36A     -0.737857
      37A     -0.693094    38A     -0.677159    39A     -0.668126
      40A     -0.651722    41A     -0.641524    42A     -0.626262
      43A     -0.587495    44A     -0.577105    45A     -0.566261
      46A     -0.561987    47A     -0.553686    48A     -0.552485
      49A     -0.550035    50A     -0.536795    51A     -0.533467
      52A     -0.519783    53A     -0.517649    54A     -0.508686
      55A     -0.497421    56A     -0.492164    57A     -0.491650
      58A     -0.476962    59A     -0.472495    60A     -0.441359
      61A     -0.421159    62A     -0.417619    63A     -0.395705
      64A     -0.375776    65A     -0.368513    66A     -0.339734
      67A     -0.317507

  @DF-RKS Final Energy: -1264.63088781665147

   => Energetics <=

    Nuclear Repulsion Energy =           1339.3061340387250766
    One-Electron Energy =               -4397.7718447736333474
    Two-Electron Energy =                1889.8805716809583828
    DFT Exchange-Correlation Energy =     -96.0285308747646695
    Empirical Dispersion Energy =          -0.0172178879364087
    VV10 Nonlocal Energy =                  0.0000000000000000
    Total Energy =                      -1264.6308878166512386

  Dipole Moment: [D]
     X:     6.2978      Y:    -0.9910      Z:     0.0952     Total:     6.3760

*** Psi4 exiting successfully. Buy a developer a beer!
