                               Psi4 1.3.2 release

  ==> Input File <==

--------------------------------------------------------------------------
molecule {
0 1
  N                 -0.9676160    -1.4549240     0.2093220
  C                 -2.2516760    -1.1474040     0.5732680
  C                 -2.6107660     0.3750310     0.5977090
  F                 -3.6825620     0.5612650    -0.2465570
  F                 -3.0110640     0.6832050     1.8787410
  C                 -1.4864710     1.3888710     0.1866270
  C                 -0.1594330     0.8356860    -0.1693950
  C                  0.8949590     1.7010320    -0.5387870
  C                  2.1512030     1.1968010    -0.8958420
  C                  2.3936020    -0.2024380    -0.8646550
  C                  1.3398080    -1.0681870    -0.4980230
  C                  0.0735220    -0.5672840    -0.1515180
  S                  3.9172910    -0.9750520    -1.3417990
  C                  5.2135560    -0.0666170    -0.4589820
  O                 -3.0424390    -2.0342170     0.8612460
  O                 -1.7101850     2.5957460     0.1758760
  H                  2.9264970     1.8980460    -1.2020810
  H                  0.7003320     2.7739000    -0.5549490
  H                 -0.7969600    -2.4513040     0.2094560
  H                  1.5092480    -2.1455980    -0.4926220
  H                  5.4188490     0.8717440    -0.9825500
  H                  4.8876330     0.1426680     0.5640310
  H                  6.1202410    -0.6780710    -0.4326100
--
0 1
  O                  2.9886393     0.0729162     2.2269918
  H                  2.6099103    -0.5937548     2.8007138
  H                  2.3855843     0.8169772     2.1948738
}
memory 16GB
set_num_threads(8)
psi4_io.set_default_path("/scratch/Psi4-ligand")
set maxiter 500
set freeze_core True
set PROPERTIES_ORIGIN ["COM"]
e_dim= energy('wb97x-d/aug-cc-pVDZ',bsse_type='cp')

psi4.print_out('CP Energy = %10.6f' % (e_dim))
clean()
--------------------------------------------------------------------------

    Molecular point group: c1
  Charge       = 0
  Multiplicity = 1
  Basis Set: AUG-CC-PVDZ
    Blend: AUG-CC-PVDZ
  Basis Set: (AUG-CC-PVDZ AUX)
    Blend: AUG-CC-PVDZ-JKFIT
  @DF-RKS Final Energy:   -76.41948057932819
    Total Energy =                        -76.4194805793281802
    Molecular point group: c1
  Basis Set: AUG-CC-PVDZ
    Blend: AUG-CC-PVDZ
  Basis Set: (AUG-CC-PVDZ AUX)
    Blend: AUG-CC-PVDZ-JKFIT
  @DF-RKS Final Energy:   -76.41986057874212
    Total Energy =                        -76.4198605787421172
  Basis Set: AUG-CC-PVDZ
    Blend: AUG-CC-PVDZ
  Basis Set: (AUG-CC-PVDZ AUX)
    Blend: AUG-CC-PVDZ-JKFIT
  @DF-RKS Final Energy: -1188.20828249506121
    Total Energy =                      -1188.2082824950612121
  Multiplicity = 1
  Basis Set: AUG-CC-PVDZ
    Blend: AUG-CC-PVDZ
  Basis Set: (AUG-CC-PVDZ AUX)
    Blend: AUG-CC-PVDZ-JKFIT
  @DF-RKS Final Energy: -1188.20778586459983
    Total Energy =                      -1188.2077858645998276
    Molecular point group: c1

    Geometry (in Angstrom), charge = 0, multiplicity = 1:

       Center              X                  Y                   Z               Mass
    ------------   -----------------  -----------------  -----------------  -----------------
         N           -1.155235906785    -1.501771486177     0.137548913701    14.003074004430
         C           -2.439295906785    -1.194251486177     0.501494913701    12.000000000000
         C           -2.798385906785     0.328183513823     0.525935913701    12.000000000000
         F           -3.870181906785     0.514417513823    -0.318330086299    18.998403162730
         F           -3.198683906785     0.636357513823     1.806967913701    18.998403162730
         C           -1.674090906785     1.342023513823     0.114853913701    12.000000000000
         C           -0.347052906785     0.788838513823    -0.241168086299    12.000000000000
         C            0.707339093215     1.654184513823    -0.610560086299    12.000000000000
         C            1.963583093215     1.149953513823    -0.967615086299    12.000000000000
         C            2.205982093215    -0.249285486177    -0.936428086299    12.000000000000
         C            1.152188093215    -1.115034486177    -0.569796086299    12.000000000000
         C           -0.114097906785    -0.614131486177    -0.223291086299    12.000000000000
         S            3.729671093215    -1.021899486177    -1.413572086299    31.972071174400
         C            5.025936093215    -0.113464486177    -0.530755086299    12.000000000000
         O           -3.230058906785    -2.081064486177     0.789472913701    15.994914619570
         O           -1.897804906785     2.548898513823     0.104102913701    15.994914619570
         H            2.738877093215     1.851198513823    -1.273854086299     1.007825032230
         H            0.512712093215     2.727052513823    -0.626722086299     1.007825032230
         H           -0.984579906785    -2.498151486177     0.137682913701     1.007825032230
         H            1.321628093215    -2.192445486177    -0.564395086299     1.007825032230
         H            5.231229093215     0.824896513823    -1.054323086299     1.007825032230
         H            4.700013093215     0.095820513823     0.492257913701     1.007825032230
         H            5.932621093215    -0.724918486177    -0.504383086299     1.007825032230
         O            2.801019393215     0.026068713823     2.155218713701    15.994914619570
         H            2.422290393215    -0.640602286177     2.728940713701     1.007825032230
         H            2.197964393215     0.770129713823     2.123100713701     1.007825032230

  Charge       = 0
  Multiplicity = 1
  Basis Set: AUG-CC-PVDZ
    Blend: AUG-CC-PVDZ
  Basis Set: (AUG-CC-PVDZ AUX)
    Blend: AUG-CC-PVDZ-JKFIT

    Orbital Energies [Eh]
    ---------------------

    Doubly Occupied:

       1A    -89.071028     2A    -24.873553     3A    -24.872130
       4A    -19.298392     5A    -19.294356     6A    -19.285976
       7A    -14.535135     8A    -10.507309     9A    -10.453591
      10A    -10.431875    11A    -10.404738    12A    -10.379630
      13A    -10.350378    14A    -10.349574    15A    -10.344651
      16A    -10.339681    17A    -10.338346    18A     -8.088312
      19A     -6.038115    20A     -6.033778    21A     -6.027473
      22A     -1.384028    23A     -1.328222    24A     -1.189631
      25A     -1.176784    26A     -1.137156    27A     -1.092274
      28A     -0.996875    29A     -0.934059    30A     -0.900472
      31A     -0.884786    32A     -0.863629    33A     -0.790082
      34A     -0.762538    35A     -0.749828    36A     -0.738035
      37A     -0.692986    38A     -0.677137    39A     -0.668121
      40A     -0.649990    41A     -0.641518    42A     -0.626248
      43A     -0.587519    44A     -0.577101    45A     -0.566027
      46A     -0.561883    47A     -0.553570    48A     -0.552370
      49A     -0.549871    50A     -0.535527    51A     -0.532959
      52A     -0.519953    53A     -0.517512    54A     -0.508192
      55A     -0.497342    56A     -0.493389    57A     -0.491226
      58A     -0.477047    59A     -0.472455    60A     -0.439220
      61A     -0.422583    62A     -0.417641    63A     -0.395660
      64A     -0.377583    65A     -0.368522    66A     -0.339511
      67A     -0.318018

  @DF-RKS Final Energy: -1264.63264869312707

   => Energetics <=

    Nuclear Repulsion Energy =           1331.6671058395279488
    One-Electron Energy =               -4382.5047204995817083
    Two-Electron Energy =                1882.2433379446929393
    DFT Exchange-Correlation Energy =     -96.0217882164738086
    Empirical Dispersion Energy =          -0.0165837612923575
    VV10 Nonlocal Energy =                  0.0000000000000000
    Total Energy =                      -1264.6326486931272939

  Dipole Moment: [D]
     X:     6.2408      Y:    -0.9483      Z:     0.1016     Total:     6.3133

*** Psi4 exiting successfully. Buy a developer a beer!
