                               Psi4 1.3.2 release

  ==> Input File <==

--------------------------------------------------------------------------
molecule {
0 1
  N                 -0.8260030    -1.3282960    -0.0779940
  C                 -2.1092650    -1.0544570     0.3197650
  C                 -2.3948000     0.4430980     0.6653630
  F                 -3.6960120     0.7506790     0.3113310
  F                 -2.3114660     0.5636400     2.0338450
  C                 -1.4159460     1.4949620     0.0354070
  C                 -0.0748680     0.9990970    -0.3561590
  C                  0.9166740     1.8984060    -0.8047210
  C                  2.1915510     1.4433670    -1.1643410
  C                  2.4959700     0.0584930    -1.1092430
  C                  1.4871680    -0.8493330    -0.7206960
  C                  0.2051270    -0.3977250    -0.3635390
  S                  4.0705370    -0.6284060    -1.5292630
  C                  5.0499670    -0.3926990    -0.0252100
  O                 -2.9367190    -1.9487370     0.4345980
  O                 -1.7231300     2.6833150    -0.0299150
  H                  2.9370610     2.1736930    -1.4774200
  H                  0.6671740     2.9585660    -0.8554840
  H                 -0.6730600    -2.3132220    -0.2442190
  H                  1.7086540    -1.9167780    -0.6859390
  H                  5.1799690     0.6784470     0.1577010
  H                  4.5314840    -0.8522290     0.8222450
  H                  6.0275000    -0.8654740    -0.1593070
--
0 1
  O                 -2.6163010     0.2550690    -2.3485750
  H                 -3.4484840     0.0695470    -1.9079740
  H                 -2.7195540     1.0670290    -2.8478970
}
memory 16GB
set_num_threads(8)
psi4_io.set_default_path("/scratch/Psi4-ligand")
set maxiter 500
set freeze_core True
set PROPERTIES_ORIGIN ["COM"]
e_dim= energy('wb97x-d/aug-cc-pVDZ',bsse_type='cp')

psi4.print_out('CP Energy = %10.6f' % (e_dim))
clean()
--------------------------------------------------------------------------

    Molecular point group: c1
  Charge       = 0
  Multiplicity = 1
  Basis Set: AUG-CC-PVDZ
    Blend: AUG-CC-PVDZ
  Basis Set: (AUG-CC-PVDZ AUX)
    Blend: AUG-CC-PVDZ-JKFIT
  @DF-RKS Final Energy:   -76.41950352907800
    Total Energy =                        -76.4195035290779998
    Molecular point group: c1
  Basis Set: AUG-CC-PVDZ
    Blend: AUG-CC-PVDZ
  Basis Set: (AUG-CC-PVDZ AUX)
    Blend: AUG-CC-PVDZ-JKFIT
  @DF-RKS Final Energy:   -76.42005807581445
    Total Energy =                        -76.4200580758144525
  Basis Set: AUG-CC-PVDZ
    Blend: AUG-CC-PVDZ
  Basis Set: (AUG-CC-PVDZ AUX)
    Blend: AUG-CC-PVDZ-JKFIT
  @DF-RKS Final Energy: -1188.20595747210064
    Total Energy =                      -1188.2059574721006356
  Multiplicity = 1
  Basis Set: AUG-CC-PVDZ
    Blend: AUG-CC-PVDZ
  Basis Set: (AUG-CC-PVDZ AUX)
    Blend: AUG-CC-PVDZ-JKFIT
  @DF-RKS Final Energy: -1188.20532204838537
    Total Energy =                      -1188.2053220483851419
    Molecular point group: c1

    Geometry (in Angstrom), charge = 0, multiplicity = 1:

       Center              X                  Y                   Z               Mass
    ------------   -----------------  -----------------  -----------------  -----------------
         N           -0.744034161222    -1.507716136840     0.251698781867    14.003074004430
         C           -2.027296161222    -1.233877136840     0.649457781867    12.000000000000
         C           -2.312831161222     0.263677863160     0.995055781867    12.000000000000
         F           -3.614043161222     0.571258863160     0.641023781867    18.998403162730
         F           -2.229497161222     0.384219863160     2.363537781867    18.998403162730
         C           -1.333977161222     1.315541863160     0.365099781867    12.000000000000
         C            0.007100838778     0.819676863160    -0.026466218133    12.000000000000
         C            0.998642838778     1.718985863160    -0.475028218133    12.000000000000
         C            2.273519838778     1.263946863160    -0.834648218133    12.000000000000
         C            2.577938838778    -0.120927136840    -0.779550218133    12.000000000000
         C            1.569136838778    -1.028753136840    -0.391003218133    12.000000000000
         C            0.287095838778    -0.577145136840    -0.033846218133    12.000000000000
         S            4.152505838778    -0.807826136840    -1.199570218133    31.972071174400
         C            5.131935838778    -0.572119136840     0.304482781867    12.000000000000
         O           -2.854750161222    -2.128157136840     0.764290781867    15.994914619570
         O           -1.641161161222     2.503894863160     0.299777781867    15.994914619570
         H            3.019029838778     1.994272863160    -1.147727218133     1.007825032230
         H            0.749142838778     2.779145863160    -0.525791218133     1.007825032230
         H           -0.591091161222    -2.492642136840     0.085473781867     1.007825032230
         H            1.790622838778    -2.096198136840    -0.356246218133     1.007825032230
         H            5.261937838778     0.499026863160     0.487393781867     1.007825032230
         H            4.613452838778    -1.031649136840     1.151937781867     1.007825032230
         H            6.109468838778    -1.044894136840     0.170385781867     1.007825032230
         O           -2.534332161222     0.075648863160    -2.018882218133    15.994914619570
         H           -3.366515161222    -0.109873136840    -1.578281218133     1.007825032230
         H           -2.637585161222     0.887608863160    -2.518204218133     1.007825032230

  Charge       = 0
  Multiplicity = 1
  Basis Set: AUG-CC-PVDZ
    Blend: AUG-CC-PVDZ
  Basis Set: (AUG-CC-PVDZ AUX)
    Blend: AUG-CC-PVDZ-JKFIT

    Orbital Energies [Eh]
    ---------------------

    Doubly Occupied:

       1A    -89.064977     2A    -24.876993     3A    -24.871089
       4A    -19.297538     5A    -19.291419     6A    -19.284149
       7A    -14.529230     8A    -10.505905     9A    -10.451291
      10A    -10.432082    11A    -10.400064    12A    -10.372239
      13A    -10.349646    14A    -10.345560    15A    -10.343398
      16A    -10.341440    17A    -10.337824    18A     -8.082456
      19A     -6.032320    20A     -6.028200    21A     -6.021248
      22A     -1.385113    23A     -1.327764    24A     -1.185896
      25A     -1.174416    26A     -1.133865    27A     -1.086664
      28A     -0.993804    29A     -0.932254    30A     -0.898449
      31A     -0.882182    32A     -0.861889    33A     -0.787670
      34A     -0.759624    35A     -0.746308    36A     -0.735495
      37A     -0.692069    38A     -0.673119    39A     -0.668488
      40A     -0.647321    41A     -0.637164    42A     -0.623914
      43A     -0.585016    44A     -0.575052    45A     -0.564430
      46A     -0.558424    47A     -0.552353    48A     -0.550592
      49A     -0.546433    50A     -0.536932    51A     -0.529634
      52A     -0.523414    53A     -0.519352    54A     -0.507451
      55A     -0.497646    56A     -0.492845    57A     -0.489230
      58A     -0.475587    59A     -0.468811    60A     -0.435569
      61A     -0.420413    62A     -0.414905    63A     -0.393997
      64A     -0.367194    65A     -0.361468    66A     -0.333837
      67A     -0.327158

  @DF-RKS Final Energy: -1264.63560267168691

   => Energetics <=

    Nuclear Repulsion Energy =           1348.4882480712699362
    One-Electron Energy =               -4416.4634274646687118
    Two-Electron Energy =                1899.3772247702750064
    DFT Exchange-Correlation Energy =     -96.0207475842649529
    Empirical Dispersion Energy =          -0.0169004642983285
    VV10 Nonlocal Energy =                  0.0000000000000000
    Total Energy =                      -1264.6356026716869110

  Dipole Moment: [D]
     X:     4.7067      Y:    -0.1887      Z:    -1.0324     Total:     4.8222

*** Psi4 exiting successfully. Buy a developer a beer!
