                               Psi4 1.3.2 release

  ==> Input File <==

--------------------------------------------------------------------------
molecule {
0 1
  N                 -0.8260030    -1.3282960    -0.0779940
  C                 -2.1092650    -1.0544570     0.3197650
  C                 -2.3948000     0.4430980     0.6653630
  F                 -3.6960120     0.7506790     0.3113310
  F                 -2.3114660     0.5636400     2.0338450
  C                 -1.4159460     1.4949620     0.0354070
  C                 -0.0748680     0.9990970    -0.3561590
  C                  0.9166740     1.8984060    -0.8047210
  C                  2.1915510     1.4433670    -1.1643410
  C                  2.4959700     0.0584930    -1.1092430
  C                  1.4871680    -0.8493330    -0.7206960
  C                  0.2051270    -0.3977250    -0.3635390
  S                  4.0705370    -0.6284060    -1.5292630
  C                  5.0499670    -0.3926990    -0.0252100
  O                 -2.9367190    -1.9487370     0.4345980
  O                 -1.7231300     2.6833150    -0.0299150
  H                  2.9370610     2.1736930    -1.4774200
  H                  0.6671740     2.9585660    -0.8554840
  H                 -0.6730600    -2.3132220    -0.2442190
  H                  1.7086540    -1.9167780    -0.6859390
  H                  5.1799690     0.6784470     0.1577010
  H                  4.5314840    -0.8522290     0.8222450
  H                  6.0275000    -0.8654740    -0.1593070
--
0 1
  O                 -2.4055642     0.3297792    -1.8339076
  H                 -3.2377472     0.1442572    -1.3933066
  H                 -2.5088172     1.1417392    -2.3332296
}
memory 16GB
set_num_threads(8)
psi4_io.set_default_path("/scratch/Psi4-ligand")
set maxiter 500
set freeze_core True
set PROPERTIES_ORIGIN ["COM"]
e_dim= energy('wb97x-d/aug-cc-pVDZ',bsse_type='cp')

psi4.print_out('CP Energy = %10.6f' % (e_dim))
clean()
--------------------------------------------------------------------------

    Molecular point group: c1
  Charge       = 0
  Multiplicity = 1
  Basis Set: AUG-CC-PVDZ
    Blend: AUG-CC-PVDZ
  Basis Set: (AUG-CC-PVDZ AUX)
    Blend: AUG-CC-PVDZ-JKFIT
  @DF-RKS Final Energy:   -76.41950352902779
    Total Energy =                        -76.4195035290277929
    Molecular point group: c1
  Basis Set: AUG-CC-PVDZ
    Blend: AUG-CC-PVDZ
  Basis Set: (AUG-CC-PVDZ AUX)
    Blend: AUG-CC-PVDZ-JKFIT
  @DF-RKS Final Energy:   -76.42054787259887
    Total Energy =                        -76.4205478725988883
  Basis Set: AUG-CC-PVDZ
    Blend: AUG-CC-PVDZ
  Basis Set: (AUG-CC-PVDZ AUX)
    Blend: AUG-CC-PVDZ-JKFIT
  @DF-RKS Final Energy: -1188.20648697602473
    Total Energy =                      -1188.2064869760247348
  Multiplicity = 1
  Basis Set: AUG-CC-PVDZ
    Blend: AUG-CC-PVDZ
  Basis Set: (AUG-CC-PVDZ AUX)
    Blend: AUG-CC-PVDZ-JKFIT
  @DF-RKS Final Energy: -1188.20532260692789
    Total Energy =                      -1188.2053226069276661
    Molecular point group: c1

    Geometry (in Angstrom), charge = 0, multiplicity = 1:

       Center              X                  Y                   Z               Mass
    ------------   -----------------  -----------------  -----------------  -----------------
         N           -0.758574752860    -1.512871052875     0.216187335872    14.003074004430
         C           -2.041836752860    -1.239032052875     0.613946335872    12.000000000000
         C           -2.327371752860     0.258522947125     0.959544335872    12.000000000000
         F           -3.628583752860     0.566103947125     0.605512335872    18.998403162730
         F           -2.244037752860     0.379064947125     2.328026335872    18.998403162730
         C           -1.348517752860     1.310386947125     0.329588335872    12.000000000000
         C           -0.007439752860     0.814521947125    -0.061977664128    12.000000000000
         C            0.984102247140     1.713830947125    -0.510539664128    12.000000000000
         C            2.258979247140     1.258791947125    -0.870159664128    12.000000000000
         C            2.563398247140    -0.126082052875    -0.815061664128    12.000000000000
         C            1.554596247140    -1.033908052875    -0.426514664128    12.000000000000
         C            0.272555247140    -0.582300052875    -0.069357664128    12.000000000000
         S            4.137965247140    -0.812981052875    -1.235081664128    31.972071174400
         C            5.117395247140    -0.577274052875     0.268971335872    12.000000000000
         O           -2.869290752860    -2.133312052875     0.728779335872    15.994914619570
         O           -1.655701752860     2.498739947125     0.264266335872    15.994914619570
         H            3.004489247140     1.989117947125    -1.183238664128     1.007825032230
         H            0.734602247140     2.773990947125    -0.561302664128     1.007825032230
         H           -0.605631752860    -2.497797052875     0.049962335872     1.007825032230
         H            1.776082247140    -2.101353052875    -0.391757664128     1.007825032230
         H            5.247397247140     0.493871947125     0.451882335872     1.007825032230
         H            4.598912247140    -1.036804052875     1.116426335872     1.007825032230
         H            6.094928247140    -1.050049052875     0.134874335872     1.007825032230
         O           -2.338135952860     0.145204147125    -1.539726264128    15.994914619570
         H           -3.170318952860    -0.040317852875    -1.099125264128     1.007825032230
         H           -2.441388952860     0.957164147125    -2.039048264128     1.007825032230

  Charge       = 0
  Multiplicity = 1
  Basis Set: AUG-CC-PVDZ
    Blend: AUG-CC-PVDZ
  Basis Set: (AUG-CC-PVDZ AUX)
    Blend: AUG-CC-PVDZ-JKFIT

    Orbital Energies [Eh]
    ---------------------

    Doubly Occupied:

       1A    -89.063334     2A    -24.879156     3A    -24.876453
       4A    -19.302300     5A    -19.291676     6A    -19.284566
       7A    -14.527205     8A    -10.506310     9A    -10.451433
      10A    -10.431946    11A    -10.396846    12A    -10.369428
      13A    -10.347593    14A    -10.342959    15A    -10.341576
      16A    -10.339962    17A    -10.336025    18A     -8.080799
      19A     -6.030657    20A     -6.026542    21A     -6.019604
      22A     -1.389902    23A     -1.333656    24A     -1.187049
      25A     -1.172640    26A     -1.151149    27A     -1.084942
      28A     -0.991734    29A     -0.930376    30A     -0.898116
      31A     -0.880416    32A     -0.861588    33A     -0.786963
      34A     -0.758949    35A     -0.745744    36A     -0.735128
      37A     -0.697196    38A     -0.680713    39A     -0.672914
      40A     -0.657854    41A     -0.635687    42A     -0.622377
      43A     -0.582917    44A     -0.574827    45A     -0.567588
      46A     -0.558839    47A     -0.555678    48A     -0.549698
      49A     -0.546433    50A     -0.541599    51A     -0.528786
      52A     -0.528367    53A     -0.522591    54A     -0.508967
      55A     -0.498515    56A     -0.496333    57A     -0.489940
      58A     -0.475261    59A     -0.467743    60A     -0.434182
      61A     -0.426271    62A     -0.413473    63A     -0.393767
      64A     -0.365640    65A     -0.359206    66A     -0.332223
      67A     -0.325482

  @DF-RKS Final Energy: -1264.62485679821225

   => Energetics <=

    Nuclear Repulsion Energy =           1368.8524545226216560
    One-Electron Energy =               -4457.0551923178863944
    Two-Electron Energy =                1919.6513453695847602
    DFT Exchange-Correlation Energy =     -96.0562356936220709
    Empirical Dispersion Energy =          -0.0172286789103935
    VV10 Nonlocal Energy =                  0.0000000000000000
    Total Energy =                      -1264.6248567982122495

  Dipole Moment: [D]
     X:     4.4090      Y:    -0.2755      Z:    -1.1824     Total:     4.5731

*** Psi4 exiting successfully. Buy a developer a beer!
