                               Psi4 1.3.2 release

  ==> Input File <==

--------------------------------------------------------------------------
molecule {
0 1
  N                 -0.7685550    -1.3927420     0.3453050
  C                 -2.0454150    -1.1492830     0.7782580
  C                 -2.5270200     0.3364600     0.6883900
  F                 -3.6014700     0.3707270    -0.1712770
  F                 -2.9637720     0.7084010     1.9405340
  C                 -1.4851110     1.4030980     0.2004280
  C                 -0.1517140     0.9179150    -0.2225990
  C                  0.8248890     1.8303570    -0.6770190
  C                  2.0740430     1.3877300    -1.1289330
  C                  2.4015320     0.0083160    -1.0705750
  C                  1.4441770    -0.9018200    -0.5728380
  C                  0.1767120    -0.4643990    -0.1514740
  S                  3.9507640    -0.6695320    -1.5931640
  C                  5.0717630    -0.3031620    -0.2197520
  O                 -2.7437950    -2.0628100     1.1926300
  O                 -1.7801450     2.5938830     0.1635240
  H                  2.7815910     2.1208260    -1.5142670
  H                  0.5666820     2.8897050    -0.7056400
  H                 -0.5187200    -2.3693380     0.4195400
  H                  1.6892370    -1.9636950    -0.5229130
  H                  5.4085280     0.7353380    -0.2958230
  H                  4.5520560    -0.4472920     0.7330920
  H                  5.9333610    -0.9753140    -0.2724440
--
0 1
  O                  3.2456647     1.5764037     2.1672641
  H                  2.7224787     1.7510237     1.3828631
  H                  2.9423147     2.1583327     2.8642831
}
memory 16GB
set_num_threads(8)
psi4_io.set_default_path("/scratch/Psi4-ligand")
set maxiter 500
set freeze_core True
set PROPERTIES_ORIGIN ["COM"]
e_dim= energy('wb97x-d/aug-cc-pVDZ',bsse_type='cp')

psi4.print_out('CP Energy = %10.6f' % (e_dim))
clean()
--------------------------------------------------------------------------

    Molecular point group: c1
  Charge       = 0
  Multiplicity = 1
  Basis Set: AUG-CC-PVDZ
    Blend: AUG-CC-PVDZ
  Basis Set: (AUG-CC-PVDZ AUX)
    Blend: AUG-CC-PVDZ-JKFIT
  @DF-RKS Final Energy:   -76.41947771574192
    Total Energy =                        -76.4194777157419196
    Molecular point group: c1
  Basis Set: AUG-CC-PVDZ
    Blend: AUG-CC-PVDZ
  Basis Set: (AUG-CC-PVDZ AUX)
    Blend: AUG-CC-PVDZ-JKFIT
  @DF-RKS Final Energy:   -76.41992237550983
    Total Energy =                        -76.4199223755098416
  Basis Set: AUG-CC-PVDZ
    Blend: AUG-CC-PVDZ
  Basis Set: (AUG-CC-PVDZ AUX)
    Blend: AUG-CC-PVDZ-JKFIT
  @DF-RKS Final Energy: -1188.20584950947978
    Total Energy =                      -1188.2058495094795489
  Multiplicity = 1
  Basis Set: AUG-CC-PVDZ
    Blend: AUG-CC-PVDZ
  Basis Set: (AUG-CC-PVDZ AUX)
    Blend: AUG-CC-PVDZ-JKFIT
  @DF-RKS Final Energy: -1188.20538238911968
    Total Energy =                      -1188.2053823891196771
    Molecular point group: c1

    Geometry (in Angstrom), charge = 0, multiplicity = 1:

       Center              X                  Y                   Z               Mass
    ------------   -----------------  -----------------  -----------------  -----------------
         N           -1.021650595331    -1.599671721666     0.278415109923    14.003074004430
         C           -2.298510595331    -1.356212721666     0.711368109923    12.000000000000
         C           -2.780115595331     0.129530278334     0.621500109923    12.000000000000
         F           -3.854565595331     0.163797278334    -0.238166890077    18.998403162730
         F           -3.216867595331     0.501471278334     1.873644109923    18.998403162730
         C           -1.738206595331     1.196168278334     0.133538109923    12.000000000000
         C           -0.404809595331     0.710985278334    -0.289488890077    12.000000000000
         C            0.571793404669     1.623427278334    -0.743908890077    12.000000000000
         C            1.820947404669     1.180800278334    -1.195822890077    12.000000000000
         C            2.148436404669    -0.198613721666    -1.137464890077    12.000000000000
         C            1.191081404669    -1.108749721666    -0.639727890077    12.000000000000
         C           -0.076383595331    -0.671328721666    -0.218363890077    12.000000000000
         S            3.697668404669    -0.876461721666    -1.660053890077    31.972071174400
         C            4.818667404669    -0.510091721666    -0.286641890077    12.000000000000
         O           -2.996890595331    -2.269739721666     1.125740109923    15.994914619570
         O           -2.033240595331     2.386953278334     0.096634109923    15.994914619570
         H            2.528495404669     1.913896278334    -1.581156890077     1.007825032230
         H            0.313586404669     2.682775278334    -0.772529890077     1.007825032230
         H           -0.771815595331    -2.576267721666     0.352650109923     1.007825032230
         H            1.436141404669    -2.170624721666    -0.589802890077     1.007825032230
         H            5.155432404669     0.528408278334    -0.362712890077     1.007825032230
         H            4.298960404669    -0.654221721666     0.666202109923     1.007825032230
         H            5.680265404669    -1.182243721666    -0.339333890077     1.007825032230
         O            2.992569104669     1.369473978334     2.100374209923    15.994914619570
         H            2.469383104669     1.544093978334     1.315973209923     1.007825032230
         H            2.689219104669     1.951402978334     2.797393209923     1.007825032230

  Charge       = 0
  Multiplicity = 1
  Basis Set: AUG-CC-PVDZ
    Blend: AUG-CC-PVDZ
  Basis Set: (AUG-CC-PVDZ AUX)
    Blend: AUG-CC-PVDZ-JKFIT

    Orbital Energies [Eh]
    ---------------------

    Doubly Occupied:

       1A    -89.068142     2A    -24.877505     3A    -24.875686
       4A    -19.306434     5A    -19.289727     6A    -19.287305
       7A    -14.539183     8A    -10.511900     9A    -10.457390
      10A    -10.438883    11A    -10.411289    12A    -10.382271
      13A    -10.359751    14A    -10.356981    15A    -10.352635
      16A    -10.348310    17A    -10.338209    18A     -8.085657
      19A     -6.035558    20A     -6.031338    21A     -6.024471
      22A     -1.387875    23A     -1.331927    24A     -1.193300
      25A     -1.184195    26A     -1.129787    27A     -1.096845
      28A     -1.004090    29A     -0.939323    30A     -0.904571
      31A     -0.892124    32A     -0.866954    33A     -0.793040
      34A     -0.768878    35A     -0.755183    36A     -0.740745
      37A     -0.698664    38A     -0.681937    39A     -0.671928
      40A     -0.646275    41A     -0.643593    42A     -0.631871
      43A     -0.593721    44A     -0.581819    45A     -0.570065
      46A     -0.565533    47A     -0.560136    48A     -0.557562
      49A     -0.553248    50A     -0.538342    51A     -0.529464
      52A     -0.525675    53A     -0.520920    54A     -0.513774
      55A     -0.502875    56A     -0.498079    57A     -0.488659
      58A     -0.480255    59A     -0.477236    60A     -0.442297
      61A     -0.421510    62A     -0.417309    63A     -0.400319
      64A     -0.374294    65A     -0.371172    66A     -0.343784
      67A     -0.330645

  @DF-RKS Final Energy: -1264.63098634621770

   => Energetics <=

    Nuclear Repulsion Energy =           1324.5670399530831673
    One-Electron Energy =               -4367.8506606372384340
    Two-Electron Energy =                1874.6921148276619533
    DFT Exchange-Correlation Energy =     -96.0232563668297132
    Empirical Dispersion Energy =          -0.0162241228948080
    VV10 Nonlocal Energy =                  0.0000000000000000
    Total Energy =                      -1264.6309863462176963

  Dipole Moment: [D]
     X:     5.3396      Y:    -0.0285      Z:    -0.6711     Total:     5.3817

*** Psi4 exiting successfully. Buy a developer a beer!
