                               Psi4 1.3.2 release

  ==> Input File <==

--------------------------------------------------------------------------
molecule {
0 1
  N                 -0.8910240    -1.4030780    -0.0050850
  C                 -2.1808660    -1.1218050     0.3703250
  C                 -2.4689910     0.3847960     0.6739010
  F                 -3.7849310     0.6704210     0.3591430
  F                 -2.3291420     0.5634900     2.0316330
  C                 -1.5277770     1.4100670    -0.0475910
  C                 -0.1824620     0.9149700    -0.4256940
  C                  0.7873200     1.8015830    -0.9424290
  C                  2.0693580     1.3486090    -1.2791370
  C                  2.4018320    -0.0232130    -1.1337320
  C                  1.4130960    -0.9230310    -0.6803090
  C                  0.1246030    -0.4738350    -0.3445350
  S                  3.9885200    -0.7054780    -1.5137690
  C                  4.9737920    -0.3323170    -0.0410660
  O                 -3.0031200    -2.0217960     0.5026800
  O                 -1.8575620     2.5856590    -0.1852130
  H                  2.7984520     2.0707080    -1.6457550
  H                  0.5177650     2.8518550    -1.0566600
  H                 -0.7268170    -2.3929600    -0.1238800
  H                  1.6556850    -1.9812730    -0.5767180
  H                  5.1536430     0.7460270     0.0098090
  H                  4.4330830    -0.6596020     0.8528180
  H                  5.9285950    -0.8622630    -0.1078720
--
0 1
  O                 -2.9807248    -0.3451878    -2.7224230
  H                 -3.5477648    -1.1106208    -2.5997630
  H                 -3.5150718     0.3505212    -3.1097410
}
memory 16GB
set_num_threads(8)
psi4_io.set_default_path("/scratch/Psi4-ligand")
set maxiter 500
set freeze_core True
set PROPERTIES_ORIGIN ["COM"]
e_dim= energy('wb97x-d/aug-cc-pVDZ',bsse_type='cp')

psi4.print_out('CP Energy = %10.6f' % (e_dim))
clean()
--------------------------------------------------------------------------

    Molecular point group: c1
  Charge       = 0
  Multiplicity = 1
  Basis Set: AUG-CC-PVDZ
    Blend: AUG-CC-PVDZ
  Basis Set: (AUG-CC-PVDZ AUX)
    Blend: AUG-CC-PVDZ-JKFIT
  @DF-RKS Final Energy:   -76.41957322391936
    Total Energy =                        -76.4195732239193433
    Molecular point group: c1
  Basis Set: AUG-CC-PVDZ
    Blend: AUG-CC-PVDZ
  Basis Set: (AUG-CC-PVDZ AUX)
    Blend: AUG-CC-PVDZ-JKFIT
  @DF-RKS Final Energy:   -76.41984385048717
    Total Energy =                        -76.4198438504871831
  Basis Set: AUG-CC-PVDZ
    Blend: AUG-CC-PVDZ
  Basis Set: (AUG-CC-PVDZ AUX)
    Blend: AUG-CC-PVDZ-JKFIT
  @DF-RKS Final Energy: -1188.20515708506855
    Total Energy =                      -1188.2051570850685493
  Multiplicity = 1
  Basis Set: AUG-CC-PVDZ
    Blend: AUG-CC-PVDZ
  Basis Set: (AUG-CC-PVDZ AUX)
    Blend: AUG-CC-PVDZ-JKFIT
  @DF-RKS Final Energy: -1188.20489080389575
    Total Energy =                      -1188.2048908038959780
    Molecular point group: c1

    Geometry (in Angstrom), charge = 0, multiplicity = 1:

       Center              X                  Y                   Z               Mass
    ------------   -----------------  -----------------  -----------------  -----------------
         N           -0.703992486328    -1.478057121679     0.363237038421    14.003074004430
         C           -1.993834486328    -1.196784121679     0.738647038421    12.000000000000
         C           -2.281959486328     0.309816878321     1.042223038421    12.000000000000
         F           -3.597899486328     0.595441878321     0.727465038421    18.998403162730
         F           -2.142110486328     0.488510878321     2.399955038421    18.998403162730
         C           -1.340745486328     1.335087878321     0.320731038421    12.000000000000
         C            0.004569513672     0.839990878321    -0.057371961579    12.000000000000
         C            0.974351513672     1.726603878321    -0.574106961579    12.000000000000
         C            2.256389513672     1.273629878321    -0.910814961579    12.000000000000
         C            2.588863513672    -0.098192121679    -0.765409961579    12.000000000000
         C            1.600127513672    -0.998010121679    -0.311986961579    12.000000000000
         C            0.311634513672    -0.548814121679     0.023787038421    12.000000000000
         S            4.175551513672    -0.780457121679    -1.145446961579    31.972071174400
         C            5.160823513672    -0.407296121679     0.327256038421    12.000000000000
         O           -2.816088486328    -2.096775121679     0.871002038421    15.994914619570
         O           -1.670530486328     2.510679878321     0.183109038421    15.994914619570
         H            2.985483513672     1.995728878321    -1.277432961579     1.007825032230
         H            0.704796513672     2.776875878321    -0.688337961579     1.007825032230
         H           -0.539785486328    -2.467939121679     0.244442038421     1.007825032230
         H            1.842716513672    -2.056252121679    -0.208395961579     1.007825032230
         H            5.340674513672     0.671047878321     0.378131038421     1.007825032230
         H            4.620114513672    -0.734581121679     1.221140038421     1.007825032230
         H            6.115626513672    -0.937242121679     0.260450038421     1.007825032230
         O           -2.793693286328    -0.420166921679    -2.354100961579    15.994914619570
         H           -3.360733286328    -1.185599921679    -2.231440961579     1.007825032230
         H           -3.328040286328     0.275542078321    -2.741418961579     1.007825032230

  Charge       = 0
  Multiplicity = 1
  Basis Set: AUG-CC-PVDZ
    Blend: AUG-CC-PVDZ
  Basis Set: (AUG-CC-PVDZ AUX)
    Blend: AUG-CC-PVDZ-JKFIT

    Orbital Energies [Eh]
    ---------------------

    Doubly Occupied:

       1A    -89.064907     2A    -24.875002     3A    -24.861377
       4A    -19.297450     5A    -19.286192     6A    -19.283056
       7A    -14.529342     8A    -10.502980     9A    -10.450650
      10A    -10.429861    11A    -10.400233    12A    -10.372359
      13A    -10.349300    14A    -10.345398    15A    -10.343257
      16A    -10.341316    17A    -10.337476    18A     -8.082392
      19A     -6.032254    20A     -6.028136    21A     -6.021184
      22A     -1.379883    23A     -1.320745    24A     -1.183665
      25A     -1.173638    26A     -1.127272    27A     -1.086348
      28A     -0.993573    29A     -0.932034    30A     -0.897541
      31A     -0.881747    32A     -0.860699    33A     -0.786605
      34A     -0.758775    35A     -0.745289    36A     -0.734062
      37A     -0.689592    38A     -0.670992    39A     -0.662494
      40A     -0.638381    41A     -0.636969    42A     -0.622714
      43A     -0.584543    44A     -0.573951    45A     -0.562858
      46A     -0.557093    47A     -0.551208    48A     -0.549336
      49A     -0.542212    50A     -0.534017    51A     -0.529279
      52A     -0.522039    53A     -0.510394    54A     -0.506024
      55A     -0.494832    56A     -0.489459    57A     -0.487207
      58A     -0.474573    59A     -0.467640    60A     -0.435253
      61A     -0.415258    62A     -0.414186    63A     -0.392419
      64A     -0.365913    65A     -0.361467    66A     -0.333675
      67A     -0.327013

  @DF-RKS Final Energy: -1264.63246456011052

   => Energetics <=

    Nuclear Repulsion Energy =           1332.7088691832298082
    One-Electron Energy =               -4385.1499210614101685
    Two-Electron Energy =                1883.8339705381099520
    DFT Exchange-Correlation Energy =     -96.0096051284320708
    Empirical Dispersion Energy =          -0.0157780916078660
    VV10 Nonlocal Energy =                  0.0000000000000000
    Total Energy =                      -1264.6324645601105203

  Dipole Moment: [D]
     X:     4.4160      Y:    -1.0963      Z:    -1.2687     Total:     4.7237

*** Psi4 exiting successfully. Buy a developer a beer!
