                               Psi4 1.3.2 release

  ==> Input File <==

--------------------------------------------------------------------------
molecule {
0 1
  N                 -0.8428290    -1.4083820     0.0066210
  C                 -2.1332900    -1.1277960     0.3798720
  C                 -2.4292590     0.3838470     0.6455610
  F                 -3.7509640     0.6635760     0.3443400
  F                 -2.2868720     0.5840850     2.0003210
  C                 -1.4867430     1.4036230    -0.0816350
  C                 -0.1354400     0.9075720    -0.4373280
  C                  0.8340730     1.7890790    -0.9624210
  C                  2.1194540     1.3351410    -1.2846030
  C                  2.4560690    -0.0330230    -1.1146520
  C                  1.4670190    -0.9296050    -0.6545140
  C                  0.1734730    -0.4800210    -0.3372240
  S                  4.0482530    -0.7136320    -1.4755480
  C                  5.0229460    -0.3209240    -0.0008380
  O                 -2.9506990    -2.0270760     0.5335290
  O                 -1.8231240     2.5749750    -0.2454090
  H                  2.8479870     2.0541620    -1.6586360
  H                  0.5613700     2.8361600    -1.0959240
  H                 -0.6743700    -2.3995180    -0.0952840
  H                  1.7145800    -1.9843230    -0.5271240
  H                  5.0905510     0.7655620     0.1114950
  H                  4.5393410    -0.7545560     0.8800610
  H                  6.0261560    -0.7422870    -0.1142930
--
0 1
  O                 -2.7895698    -0.1055610    -2.7712494
  H                 -3.4869568    -0.7648560    -2.7990224
  H                 -3.1418938     0.7030140    -3.1491904
}
memory 16GB
set_num_threads(8)
psi4_io.set_default_path("/scratch/Psi4-ligand")
set maxiter 500
set freeze_core True
set PROPERTIES_ORIGIN ["COM"]
e_dim= energy('wb97x-d/aug-cc-pVDZ',bsse_type='cp')

psi4.print_out('CP Energy = %10.6f' % (e_dim))
clean()
--------------------------------------------------------------------------

    Molecular point group: c1
  Charge       = 0
  Multiplicity = 1
  Basis Set: AUG-CC-PVDZ
    Blend: AUG-CC-PVDZ
  Basis Set: (AUG-CC-PVDZ AUX)
    Blend: AUG-CC-PVDZ-JKFIT
  @DF-RKS Final Energy:   -76.41957583218247
    Total Energy =                        -76.4195758321824741
    Molecular point group: c1
  Basis Set: AUG-CC-PVDZ
    Blend: AUG-CC-PVDZ
  Basis Set: (AUG-CC-PVDZ AUX)
    Blend: AUG-CC-PVDZ-JKFIT
  @DF-RKS Final Energy:   -76.41984775709311
    Total Energy =                        -76.4198477570931090
  Basis Set: AUG-CC-PVDZ
    Blend: AUG-CC-PVDZ
  Basis Set: (AUG-CC-PVDZ AUX)
    Blend: AUG-CC-PVDZ-JKFIT
  @DF-RKS Final Energy: -1188.20514287639139
    Total Energy =                      -1188.2051428763913918
  Multiplicity = 1
  Basis Set: AUG-CC-PVDZ
    Blend: AUG-CC-PVDZ
  Basis Set: (AUG-CC-PVDZ AUX)
    Blend: AUG-CC-PVDZ-JKFIT
  @DF-RKS Final Energy: -1188.20489423878530
    Total Energy =                      -1188.2048942387855277
    Molecular point group: c1

    Geometry (in Angstrom), charge = 0, multiplicity = 1:

       Center              X                  Y                   Z               Mass
    ------------   -----------------  -----------------  -----------------  -----------------
         N           -0.713285434410    -1.496827161261     0.378014002747    14.003074004430
         C           -2.003746434410    -1.216241161261     0.751265002747    12.000000000000
         C           -2.299715434410     0.295401838739     1.016954002747    12.000000000000
         F           -3.621420434410     0.575130838739     0.715733002747    18.998403162730
         F           -2.157328434410     0.495639838739     2.371714002747    18.998403162730
         C           -1.357199434410     1.315177838739     0.289758002747    12.000000000000
         C           -0.005896434410     0.819126838739    -0.065934997253    12.000000000000
         C            0.963616565590     1.700633838739    -0.591027997253    12.000000000000
         C            2.248997565590     1.246695838739    -0.913209997253    12.000000000000
         C            2.585612565590    -0.121468161261    -0.743258997253    12.000000000000
         C            1.596562565590    -1.018050161261    -0.283120997253    12.000000000000
         C            0.303016565590    -0.568466161261     0.034169002747    12.000000000000
         S            4.177796565590    -0.802077161261    -1.104154997253    31.972071174400
         C            5.152489565590    -0.409369161261     0.370555002747    12.000000000000
         O           -2.821155434410    -2.115521161261     0.904922002747    15.994914619570
         O           -1.693580434410     2.486529838739     0.125984002747    15.994914619570
         H            2.977530565590     1.965716838739    -1.287242997253     1.007825032230
         H            0.690913565590     2.747714838739    -0.724530997253     1.007825032230
         H           -0.544826434410    -2.487963161261     0.276109002747     1.007825032230
         H            1.844123565590    -2.072768161261    -0.155730997253     1.007825032230
         H            5.220094565590     0.677116838739     0.482888002747     1.007825032230
         H            4.668884565590    -0.843001161261     1.251454002747     1.007825032230
         H            6.155699565590    -0.830732161261     0.257100002747     1.007825032230
         O           -2.660026234410    -0.194006161261    -2.399856397253    15.994914619570
         H           -3.357413234410    -0.853301161261    -2.427629397253     1.007825032230
         H           -3.012350234410     0.614568838739    -2.777797397253     1.007825032230

  Charge       = 0
  Multiplicity = 1
  Basis Set: AUG-CC-PVDZ
    Blend: AUG-CC-PVDZ
  Basis Set: (AUG-CC-PVDZ AUX)
    Blend: AUG-CC-PVDZ-JKFIT

    Orbital Energies [Eh]
    ---------------------

    Doubly Occupied:

       1A    -89.064825     2A    -24.873332     3A    -24.860582
       4A    -19.297229     5A    -19.287958     6A    -19.282097
       7A    -14.528671     8A    -10.502071     9A    -10.449651
      10A    -10.430108    11A    -10.400124    12A    -10.372168
      13A    -10.349127    14A    -10.345186    15A    -10.343124
      16A    -10.341236    17A    -10.337318    18A     -8.082287
      19A     -6.032151    20A     -6.028030    21A     -6.021081
      22A     -1.379004    23A     -1.318980    24A     -1.183166
      25A     -1.172966    26A     -1.128949    27A     -1.085572
      28A     -0.993244    29A     -0.931760    30A     -0.897042
      31A     -0.881464    32A     -0.860283    33A     -0.786295
      34A     -0.758390    35A     -0.744856    36A     -0.733764
      37A     -0.688933    38A     -0.670367    39A     -0.660916
      40A     -0.639897    41A     -0.636246    42A     -0.622136
      43A     -0.584268    44A     -0.573719    45A     -0.562089
      46A     -0.556490    47A     -0.550930    48A     -0.548810
      49A     -0.541493    50A     -0.533472    51A     -0.529150
      52A     -0.521435    53A     -0.508794    54A     -0.505290
      55A     -0.494493    56A     -0.491013    57A     -0.487198
      58A     -0.474288    59A     -0.467411    60A     -0.434753
      61A     -0.416517    62A     -0.414334    63A     -0.391843
      64A     -0.365611    65A     -0.361108    66A     -0.333424
      67A     -0.326690

  @DF-RKS Final Energy: -1264.63266986118674

   => Energetics <=

    Nuclear Repulsion Energy =           1334.1306542735835592
    One-Electron Energy =               -4388.0382079587261615
    Two-Electron Energy =                1885.2990008643409965
    DFT Exchange-Correlation Energy =     -96.0082915136901249
    Empirical Dispersion Energy =          -0.0158255266950220
    VV10 Nonlocal Energy =                  0.0000000000000000
    Total Energy =                      -1264.6326698611865140

  Dipole Moment: [D]
     X:     4.4830      Y:    -0.7956      Z:    -1.5041     Total:     4.7950

*** Psi4 exiting successfully. Buy a developer a beer!
