                               Psi4 1.3.2 release

  ==> Input File <==

--------------------------------------------------------------------------
molecule {
0 1
  N                 -0.9434020    -1.2946320    -0.0708730
  C                 -2.2086410    -1.0439180     0.3936770
  C                 -2.5064230     0.4442600     0.7696760
  F                 -3.7903720     0.7497380     0.3523190
  F                 -2.4836960     0.5330490     2.1429320
  C                 -1.5166830     1.5216170     0.2013870
  C                 -0.1964200     1.0409120    -0.2702800
  C                  0.7882390     1.9604880    -0.6925130
  C                  2.0449640     1.5210510    -1.1271190
  C                  2.3379690     0.1335820    -1.1724330
  C                  1.3372550    -0.7903110    -0.8016000
  C                  0.0734500    -0.3537710    -0.3679190
  S                  3.8924890    -0.5349890    -1.6856220
  C                  4.9258200    -0.3817870    -0.2070430
  O                 -3.0103620    -1.9559730     0.5455690
  O                 -1.8061590     2.7159920     0.2283820
  H                  2.7864760     2.2648640    -1.4172820
  H                  0.5494890     3.0238560    -0.6588960
  H                 -0.7909570    -2.2752920    -0.2609620
  H                  1.5516850    -1.8593380    -0.8390890
  H                  5.1500330     0.6747250    -0.0313260
  H                  4.3926260    -0.7947290     0.6550380
  H                  5.8560830    -0.9356900    -0.3635650
--
0 1
  O                 -2.7319587     0.4776745    -2.0744998
  H                 -3.6561127     0.4976885    -1.8150088
  H                 -2.5669177     1.2350005    -2.6381478
}
memory 16GB
set_num_threads(8)
psi4_io.set_default_path("/scratch/Psi4-ligand")
set maxiter 500
set freeze_core True
set PROPERTIES_ORIGIN ["COM"]
e_dim= energy('wb97x-d/aug-cc-pVDZ',bsse_type='cp')

psi4.print_out('CP Energy = %10.6f' % (e_dim))
clean()
--------------------------------------------------------------------------

    Molecular point group: c1
  Charge       = 0
  Multiplicity = 1
  Basis Set: AUG-CC-PVDZ
    Blend: AUG-CC-PVDZ
  Basis Set: (AUG-CC-PVDZ AUX)
    Blend: AUG-CC-PVDZ-JKFIT
  @DF-RKS Final Energy:   -76.41951278054599
    Total Energy =                        -76.4195127805459720
    Molecular point group: c1
  Basis Set: AUG-CC-PVDZ
    Blend: AUG-CC-PVDZ
  Basis Set: (AUG-CC-PVDZ AUX)
    Blend: AUG-CC-PVDZ-JKFIT
  @DF-RKS Final Energy:   -76.42015196316649
    Total Energy =                        -76.4201519631664894
  Basis Set: AUG-CC-PVDZ
    Blend: AUG-CC-PVDZ
  Basis Set: (AUG-CC-PVDZ AUX)
    Blend: AUG-CC-PVDZ-JKFIT
  @DF-RKS Final Energy: -1188.20599679274733
    Total Energy =                      -1188.2059967927471007
  Multiplicity = 1
  Basis Set: AUG-CC-PVDZ
    Blend: AUG-CC-PVDZ
  Basis Set: (AUG-CC-PVDZ AUX)
    Blend: AUG-CC-PVDZ-JKFIT
  @DF-RKS Final Energy: -1188.20527827395790
    Total Energy =                      -1188.2052782739579015
    Molecular point group: c1

    Geometry (in Angstrom), charge = 0, multiplicity = 1:

       Center              X                  Y                   Z               Mass
    ------------   -----------------  -----------------  -----------------  -----------------
         N           -0.735134243830    -1.522213952083     0.216447933884    14.003074004430
         C           -2.000373243830    -1.271499952083     0.680997933884    12.000000000000
         C           -2.298155243830     0.216678047917     1.056996933884    12.000000000000
         F           -3.582104243830     0.522156047917     0.639639933884    18.998403162730
         F           -2.275428243830     0.305467047917     2.430252933884    18.998403162730
         C           -1.308415243830     1.294035047917     0.488707933884    12.000000000000
         C            0.011847756170     0.813330047917     0.017040933884    12.000000000000
         C            0.996506756170     1.732906047917    -0.405192066116    12.000000000000
         C            2.253231756170     1.293469047917    -0.839798066116    12.000000000000
         C            2.546236756170    -0.093999952083    -0.885112066116    12.000000000000
         C            1.545522756170    -1.017892952083    -0.514279066116    12.000000000000
         C            0.281717756170    -0.581352952083    -0.080598066116    12.000000000000
         S            4.100756756170    -0.762570952083    -1.398301066116    31.972071174400
         C            5.134087756170    -0.609368952083     0.080277933884    12.000000000000
         O           -2.802094243830    -2.183554952083     0.832889933884    15.994914619570
         O           -1.597891243830     2.488410047917     0.515702933884    15.994914619570
         H            2.994743756170     2.037282047917    -1.129961066116     1.007825032230
         H            0.757756756170     2.796274047917    -0.371575066116     1.007825032230
         H           -0.582689243830    -2.502873952083     0.026358933884     1.007825032230
         H            1.759952756170    -2.086919952083    -0.551768066116     1.007825032230
         H            5.358300756170     0.447143047917     0.255994933884     1.007825032230
         H            4.600893756170    -1.022310952083     0.942358933884     1.007825032230
         H            6.064350756170    -1.163271952083    -0.076244066116     1.007825032230
         O           -2.523690943830     0.250092547917    -1.787178866116    15.994914619570
         H           -3.447844943830     0.270106547917    -1.527687866116     1.007825032230
         H           -2.358649943830     1.007418547917    -2.350826866116     1.007825032230

  Charge       = 0
  Multiplicity = 1
  Basis Set: AUG-CC-PVDZ
    Blend: AUG-CC-PVDZ
  Basis Set: (AUG-CC-PVDZ AUX)
    Blend: AUG-CC-PVDZ-JKFIT

    Orbital Energies [Eh]
    ---------------------

    Doubly Occupied:

       1A    -89.064713     2A    -24.874255     3A    -24.868330
       4A    -19.294912     5A    -19.293172     6A    -19.280183
       7A    -14.526628     8A    -10.503542     9A    -10.448020
      10A    -10.430463    11A    -10.398985    12A    -10.371651
      13A    -10.348531    14A    -10.344899    15A    -10.342776
      16A    -10.341126    17A    -10.337280    18A     -8.082204
      19A     -6.032064    20A     -6.027943    21A     -6.021002
      22A     -1.381988    23A     -1.325818    24A     -1.182324
      25A     -1.172455    26A     -1.136724    27A     -1.084196
      28A     -0.993072    29A     -0.931495    30A     -0.896494
      31A     -0.881172    32A     -0.860620    33A     -0.786869
      34A     -0.758033    35A     -0.744409    36A     -0.734526
      37A     -0.690693    38A     -0.671961    39A     -0.666253
      40A     -0.650993    41A     -0.635375    42A     -0.621275
      43A     -0.583530    44A     -0.573579    45A     -0.561913
      46A     -0.556810    47A     -0.551157    48A     -0.549812
      49A     -0.545524    50A     -0.534680    51A     -0.529451
      52A     -0.522599    53A     -0.517306    54A     -0.505259
      55A     -0.496953    56A     -0.495196    57A     -0.488307
      58A     -0.473896    59A     -0.467751    60A     -0.434243
      61A     -0.421038    62A     -0.413940    63A     -0.390933
      64A     -0.364868    65A     -0.361093    66A     -0.332609
      67A     -0.326605

  @DF-RKS Final Energy: -1264.63485690733683

   => Energetics <=

    Nuclear Repulsion Energy =           1353.1087858516714277
    One-Electron Energy =               -4425.8622583347168984
    Two-Electron Energy =                1904.1630348003061499
    DFT Exchange-Correlation Energy =     -96.0275251785133435
    Empirical Dispersion Energy =          -0.0168940460838020
    VV10 Nonlocal Energy =                  0.0000000000000000
    Total Energy =                      -1264.6348569073365979

  Dipole Moment: [D]
     X:     4.7620      Y:     0.0220      Z:    -1.6837     Total:     5.0510

*** Psi4 exiting successfully. Buy a developer a beer!
