                               Psi4 1.3.2 release

  ==> Input File <==

--------------------------------------------------------------------------
molecule {
0 1
  N                 -0.7735580    -1.3877650     0.3762830
  C                 -2.0506670    -1.1155840     0.7908700
  C                 -2.5043840     0.3774880     0.6774080
  F                 -3.5962270     0.4156400    -0.1601540
  F                 -2.9061990     0.7850010     1.9298970
  C                 -1.4528850     1.4123530     0.1460210
  C                 -0.1227770     0.8977000    -0.2526910
  C                  0.8620890     1.7845470    -0.7401720
  C                  2.1113680     1.3117470    -1.1603950
  C                  2.4259530    -0.0670330    -1.0508120
  C                  1.4556270    -0.9494480    -0.5289330
  C                  0.1886820    -0.4855360    -0.1346250
  S                  3.9638070    -0.7835970    -1.5571510
  C                  5.1473010    -0.1867290    -0.3239010
  O                 -2.7686020    -2.0098140     1.2138050
  O                 -1.7369170     2.6034530     0.0621640
  H                  2.8251380     2.0222360    -1.5760210
  H                  0.6132780     2.8438570    -0.8113500
  H                 -0.5385400    -2.3658440     0.4783350
  H                  1.6887170    -2.0114780    -0.4410070
  H                  5.2957800     0.8895290    -0.4541750
  H                  4.7632760    -0.3852570     0.6822070
  H                  6.0990420    -0.7082150    -0.4615910
--
0 1
  O                  2.8391402     0.4408416     2.4609332
  H                  2.4247122     0.6364016     1.6188902
  H                  2.7697362     1.2174046     3.0166252
}
memory 16GB
set_num_threads(8)
psi4_io.set_default_path("/scratch/Psi4-ligand")
set maxiter 500
set freeze_core True
set PROPERTIES_ORIGIN ["COM"]
e_dim= energy('wb97x-d/aug-cc-pVDZ',bsse_type='cp')

psi4.print_out('CP Energy = %10.6f' % (e_dim))
clean()
--------------------------------------------------------------------------

    Molecular point group: c1
  Charge       = 0
  Multiplicity = 1
  Basis Set: AUG-CC-PVDZ
    Blend: AUG-CC-PVDZ
  Basis Set: (AUG-CC-PVDZ AUX)
    Blend: AUG-CC-PVDZ-JKFIT
  @DF-RKS Final Energy:   -76.41946858327954
    Total Energy =                        -76.4194685832795244
    Molecular point group: c1
  Basis Set: AUG-CC-PVDZ
    Blend: AUG-CC-PVDZ
  Basis Set: (AUG-CC-PVDZ AUX)
    Blend: AUG-CC-PVDZ-JKFIT
  @DF-RKS Final Energy:   -76.41985402548873
    Total Energy =                        -76.4198540254887462
  Basis Set: AUG-CC-PVDZ
    Blend: AUG-CC-PVDZ
  Basis Set: (AUG-CC-PVDZ AUX)
    Blend: AUG-CC-PVDZ-JKFIT
  @DF-RKS Final Energy: -1188.20696361774299
    Total Energy =                      -1188.2069636177432130
  Multiplicity = 1
  Basis Set: AUG-CC-PVDZ
    Blend: AUG-CC-PVDZ
  Basis Set: (AUG-CC-PVDZ AUX)
    Blend: AUG-CC-PVDZ-JKFIT
  @DF-RKS Final Energy: -1188.20639466013745
    Total Energy =                      -1188.2063946601374482
    Molecular point group: c1

    Geometry (in Angstrom), charge = 0, multiplicity = 1:

       Center              X                  Y                   Z               Mass
    ------------   -----------------  -----------------  -----------------  -----------------
         N           -1.020955457327    -1.513345531985     0.299590936846    14.003074004430
         C           -2.298064457327    -1.241164531985     0.714177936846    12.000000000000
         C           -2.751781457327     0.251907468015     0.600715936846    12.000000000000
         F           -3.843624457327     0.290059468015    -0.236846063154    18.998403162730
         F           -3.153596457327     0.659420468015     1.853204936846    18.998403162730
         C           -1.700282457327     1.286772468015     0.069328936846    12.000000000000
         C           -0.370174457327     0.772119468015    -0.329383063154    12.000000000000
         C            0.614691542673     1.658966468015    -0.816864063154    12.000000000000
         C            1.863970542673     1.186166468015    -1.237087063154    12.000000000000
         C            2.178555542673    -0.192613531985    -1.127504063154    12.000000000000
         C            1.208229542673    -1.075028531985    -0.605625063154    12.000000000000
         C           -0.058715457327    -0.611116531985    -0.211317063154    12.000000000000
         S            3.716409542673    -0.909177531985    -1.633843063154    31.972071174400
         C            4.899903542673    -0.312309531985    -0.400593063154    12.000000000000
         O           -3.015999457327    -2.135394531985     1.137112936846    15.994914619570
         O           -1.984314457327     2.477872468015    -0.014528063154    15.994914619570
         H            2.577740542673     1.896655468015    -1.652713063154     1.007825032230
         H            0.365880542673     2.718276468015    -0.888042063154     1.007825032230
         H           -0.785937457327    -2.491424531985     0.401642936846     1.007825032230
         H            1.441319542673    -2.137058531985    -0.517699063154     1.007825032230
         H            5.048382542673     0.763948468015    -0.530867063154     1.007825032230
         H            4.515878542673    -0.510837531985     0.605514936846     1.007825032230
         H            5.851644542673    -0.833795531985    -0.538283063154     1.007825032230
         O            2.591742742673     0.315261068015     2.384241136846    15.994914619570
         H            2.177314742673     0.510821068015     1.542198136846     1.007825032230
         H            2.522338742673     1.091824068015     2.939933136846     1.007825032230

  Charge       = 0
  Multiplicity = 1
  Basis Set: AUG-CC-PVDZ
    Blend: AUG-CC-PVDZ
  Basis Set: (AUG-CC-PVDZ AUX)
    Blend: AUG-CC-PVDZ-JKFIT

    Orbital Energies [Eh]
    ---------------------

    Doubly Occupied:

       1A    -89.071340     2A    -24.876331     3A    -24.875485
       4A    -19.305955     5A    -19.289028     6A    -19.288991
       7A    -14.538631     8A    -10.511192     9A    -10.456702
      10A    -10.438353    11A    -10.411744    12A    -10.383917
      13A    -10.359761    14A    -10.356911    15A    -10.353479
      16A    -10.348493    17A    -10.341514    18A     -8.088763
      19A     -6.038640    20A     -6.034440    21A     -6.027610
      22A     -1.387204    23A     -1.331282    24A     -1.192574
      25A     -1.183697    26A     -1.131364    27A     -1.096492
      28A     -1.004971    29A     -0.940470    30A     -0.905279
      31A     -0.891984    32A     -0.868187    33A     -0.794232
      34A     -0.768787    35A     -0.754913    36A     -0.742127
      37A     -0.698421    38A     -0.682095    39A     -0.671284
      40A     -0.646742    41A     -0.645175    42A     -0.631624
      43A     -0.593810    44A     -0.582420    45A     -0.569580
      46A     -0.565335    47A     -0.560325    48A     -0.557108
      49A     -0.554030    50A     -0.538577    51A     -0.531999
      52A     -0.526890    53A     -0.520664    54A     -0.513426
      55A     -0.502599    56A     -0.498425    57A     -0.489820
      58A     -0.480787    59A     -0.477768    60A     -0.443265
      61A     -0.424568    62A     -0.417320    63A     -0.399721
      64A     -0.375301    65A     -0.373712    66A     -0.344780
      67A     -0.330001

  @DF-RKS Final Energy: -1264.63209184767607

   => Energetics <=

    Nuclear Repulsion Energy =           1330.2644645659545404
    One-Electron Energy =               -4379.1704353867062309
    Two-Electron Energy =                1880.3140802863979388
    DFT Exchange-Correlation Energy =     -96.0235273911273168
    Empirical Dispersion Energy =          -0.0166739221950084
    VV10 Nonlocal Energy =                  0.0000000000000000
    Total Energy =                      -1264.6320918476758379

  Dipole Moment: [D]
     X:     5.9820      Y:     0.4306      Z:    -1.1008     Total:     6.0977

*** Psi4 exiting successfully. Buy a developer a beer!
