                               Psi4 1.3.2 release

  ==> Input File <==

--------------------------------------------------------------------------
molecule {
0 1
  N                 -0.8664290    -1.2589580    -0.1536890
  C                 -2.1480460    -0.9706410     0.2378410
  C                 -2.4007690     0.5145350     0.6579700
  F                 -3.6850840     0.8694240     0.2915950
  F                 -2.3353680     0.5658950     2.0315300
  C                 -1.3937820     1.5693870     0.0855650
  C                 -0.0656290     1.0595950    -0.3300500
  C                  0.9465510     1.9559480    -0.7385460
  C                  2.2136610     1.4889290    -1.1106430
  C                  2.4907560     0.0971820    -1.1056990
  C                  1.4623780    -0.8043860    -0.7556460
  C                  0.1875990    -0.3407930    -0.3880530
  S                  4.0542370    -0.6049660    -1.5424950
  C                  5.0346590    -0.4289270    -0.0306500
  O                 -3.0063170    -1.8468130     0.2574760
  O                 -1.6655360     2.7669320     0.0871550
  H                  2.9744450     2.2152280    -1.3953660
  H                  0.7201870     3.0225720    -0.7441760
  H                 -0.7355770    -2.2367310    -0.3731030
  H                  1.6634470    -1.8765260    -0.7569760
  H                  5.2834860     0.6263530     0.1168130
  H                  4.4568290    -0.7941620     0.8239960
  H                  5.9530340    -1.0151490    -0.1306800
--
0 1
  O                 -2.8819769    -0.3144526    -2.1920868
  H                 -3.2772409    -1.0514466    -1.7187248
  H                 -3.5798849     0.3089594    -2.3988108
}
memory 16GB
set_num_threads(8)
psi4_io.set_default_path("/scratch/Psi4-ligand")
set maxiter 500
set freeze_core True
set PROPERTIES_ORIGIN ["COM"]
e_dim= energy('wb97x-d/aug-cc-pVDZ',bsse_type='cp')

psi4.print_out('CP Energy = %10.6f' % (e_dim))
clean()
--------------------------------------------------------------------------

    Molecular point group: c1
  Charge       = 0
  Multiplicity = 1
  Basis Set: AUG-CC-PVDZ
    Blend: AUG-CC-PVDZ
  Basis Set: (AUG-CC-PVDZ AUX)
    Blend: AUG-CC-PVDZ-JKFIT
  @DF-RKS Final Energy:   -76.41953281161484
    Total Energy =                        -76.4195328116148431
    Molecular point group: c1
  Basis Set: AUG-CC-PVDZ
    Blend: AUG-CC-PVDZ
  Basis Set: (AUG-CC-PVDZ AUX)
    Blend: AUG-CC-PVDZ-JKFIT
  @DF-RKS Final Energy:   -76.42011536982318
    Total Energy =                        -76.4201153698231508
  Basis Set: AUG-CC-PVDZ
    Blend: AUG-CC-PVDZ
  Basis Set: (AUG-CC-PVDZ AUX)
    Blend: AUG-CC-PVDZ-JKFIT
  @DF-RKS Final Energy: -1188.20552060273349
    Total Energy =                      -1188.2055206027334862
  Multiplicity = 1
  Basis Set: AUG-CC-PVDZ
    Blend: AUG-CC-PVDZ
  Basis Set: (AUG-CC-PVDZ AUX)
    Blend: AUG-CC-PVDZ-JKFIT
  @DF-RKS Final Energy: -1188.20494314131952
    Total Energy =                      -1188.2049431413195180
    Molecular point group: c1

    Geometry (in Angstrom), charge = 0, multiplicity = 1:

       Center              X                  Y                   Z               Mass
    ------------   -----------------  -----------------  -----------------  -----------------
         N           -0.758319245447    -1.446171619507     0.172892144685    14.003074004430
         C           -2.039936245447    -1.157854619507     0.564422144685    12.000000000000
         C           -2.292659245447     0.327321380493     0.984551144685    12.000000000000
         F           -3.576974245447     0.682210380493     0.618176144685    18.998403162730
         F           -2.227258245447     0.378681380493     2.358111144685    18.998403162730
         C           -1.285672245447     1.382173380493     0.412146144685    12.000000000000
         C            0.042480754553     0.872381380493    -0.003468855315    12.000000000000
         C            1.054660754553     1.768734380493    -0.411964855315    12.000000000000
         C            2.321770754553     1.301715380493    -0.784061855315    12.000000000000
         C            2.598865754553    -0.090031619507    -0.779117855315    12.000000000000
         C            1.570487754553    -0.991599619507    -0.429064855315    12.000000000000
         C            0.295708754553    -0.528006619507    -0.061471855315    12.000000000000
         S            4.162346754553    -0.792179619507    -1.215913855315    31.972071174400
         C            5.142768754553    -0.616140619507     0.295931144685    12.000000000000
         O           -2.898207245447    -2.034026619507     0.584057144685    15.994914619570
         O           -1.557426245447     2.579718380493     0.413736144685    15.994914619570
         H            3.082554754553     2.028014380493    -1.068784855315     1.007825032230
         H            0.828296754553     2.835358380493    -0.417594855315     1.007825032230
         H           -0.627467245447    -2.423944619507    -0.046521855315     1.007825032230
         H            1.771556754553    -2.063739619507    -0.430394855315     1.007825032230
         H            5.391595754553     0.439139380493     0.443394144685     1.007825032230
         H            4.564938754553    -0.981375619507     1.150577144685     1.007825032230
         H            6.061143754553    -1.202362619507     0.195901144685     1.007825032230
         O           -2.773867145447    -0.501666219507    -1.865505655315    15.994914619570
         H           -3.169131145447    -1.238660219507    -1.392143655315     1.007825032230
         H           -3.471775145447     0.121745780493    -2.072229655315     1.007825032230

  Charge       = 0
  Multiplicity = 1
  Basis Set: AUG-CC-PVDZ
    Blend: AUG-CC-PVDZ
  Basis Set: (AUG-CC-PVDZ AUX)
    Blend: AUG-CC-PVDZ-JKFIT

    Orbital Energies [Eh]
    ---------------------

    Doubly Occupied:

       1A    -89.065980     2A    -24.877951     3A    -24.866954
       4A    -19.299533     5A    -19.288177     6A    -19.283346
       7A    -14.532386     8A    -10.506419     9A    -10.457362
      10A    -10.432198    11A    -10.401952    12A    -10.373878
      13A    -10.351296    14A    -10.346922    15A    -10.345165
      16A    -10.342194    17A    -10.339191    18A     -8.083468
      19A     -6.033337    20A     -6.029208    21A     -6.022254
      22A     -1.384100    23A     -1.326122    24A     -1.191925
      25A     -1.176398    26A     -1.126933    27A     -1.090208
      28A     -0.995463    29A     -0.933638    30A     -0.899957
      31A     -0.883806    32A     -0.862998    33A     -0.788686
      34A     -0.761999    35A     -0.748245    36A     -0.736452
      37A     -0.692456    38A     -0.674721    39A     -0.668051
      40A     -0.643953    41A     -0.639802    42A     -0.625846
      43A     -0.586682    44A     -0.575939    45A     -0.567054
      46A     -0.560206    47A     -0.553406    48A     -0.551504
      49A     -0.546815    50A     -0.536905    51A     -0.530474
      52A     -0.524464    53A     -0.517123    54A     -0.508772
      55A     -0.498098    56A     -0.490838    57A     -0.488669
      58A     -0.476916    59A     -0.469896    60A     -0.437610
      61A     -0.417055    62A     -0.412664    63A     -0.397647
      64A     -0.369532    65A     -0.363046    66A     -0.336362
      67A     -0.328513

  @DF-RKS Final Energy: -1264.63302839543417

   => Energetics <=

    Nuclear Repulsion Energy =           1348.9725366845420922
    One-Electron Energy =               -4417.3076899301968297
    Two-Electron Energy =                1899.7483267604586672
    DFT Exchange-Correlation Energy =     -96.0294680427577703
    Empirical Dispersion Energy =          -0.0167338674805137
    VV10 Nonlocal Energy =                  0.0000000000000000
    Total Energy =                      -1264.6330283954341667

  Dipole Moment: [D]
     X:     4.6637      Y:    -1.2246      Z:    -0.3710     Total:     4.8361

*** Psi4 exiting successfully. Buy a developer a beer!
