                               Psi4 1.3.2 release

  ==> Input File <==

--------------------------------------------------------------------------
molecule {
0 1
  N                 -0.9822580    -1.4639280     0.2190630
  C                 -2.2712640    -1.1572690     0.5671010
  C                 -2.6379910     0.3633640     0.5666410
  F                 -3.6579160     0.5420250    -0.3406010
  F                 -3.1158940     0.6744710     1.8203130
  C                 -1.4959220     1.3801050     0.2166770
  C                 -0.1658920     0.8276470    -0.1304690
  C                  0.8956910     1.6960470    -0.4710440
  C                  2.1574060     1.1914630    -0.8096280
  C                  2.3864770    -0.2103720    -0.8315260
  C                  1.3290480    -1.0771030    -0.4793250
  C                  0.0633070    -0.5762150    -0.1288800
  S                  3.9095680    -0.9821520    -1.3105370
  C                  5.2125960    -0.0491170    -0.4644460
  O                 -3.0629410    -2.0442960     0.8512630
  O                 -1.7123770     2.5882940     0.2314480
  H                  2.9425560     1.8959600    -1.0821180
  H                  0.7067560     2.7699810    -0.4684470
  H                 -0.8101430    -2.4600130     0.2293830
  H                  1.4909330    -2.1558700    -0.5004420
  H                  5.4914020     0.8142880    -1.0760090
  H                  4.8544660     0.2897710     0.5124480
  H                  6.0830610    -0.6978050    -0.3277450
--
0 1
  O                  3.0442300     1.0422210     1.9353100
  H                  2.4119650     0.3731660     2.1992420
  H                  2.5825560     1.8792790     1.8776360
}
memory 16GB
set_num_threads(8)
psi4_io.set_default_path("/scratch/Psi4-ligand")
set maxiter 500
set freeze_core True
set PROPERTIES_ORIGIN ["COM"]
e_dim= energy('wb97x-d/aug-cc-pVDZ',bsse_type='cp')

psi4.print_out('CP Energy = %10.6f' % (e_dim))
clean()
--------------------------------------------------------------------------

    Molecular point group: c1
  Charge       = 0
  Multiplicity = 1
  Basis Set: AUG-CC-PVDZ
    Blend: AUG-CC-PVDZ
  Basis Set: (AUG-CC-PVDZ AUX)
    Blend: AUG-CC-PVDZ-JKFIT
  @DF-RKS Final Energy:   -76.41950391800937
    Total Energy =                        -76.4195039180093687
    Molecular point group: c1
  Basis Set: AUG-CC-PVDZ
    Blend: AUG-CC-PVDZ
  Basis Set: (AUG-CC-PVDZ AUX)
    Blend: AUG-CC-PVDZ-JKFIT
  @DF-RKS Final Energy:   -76.42002560512756
    Total Energy =                        -76.4200256051275773
  Basis Set: AUG-CC-PVDZ
    Blend: AUG-CC-PVDZ
  Basis Set: (AUG-CC-PVDZ AUX)
    Blend: AUG-CC-PVDZ-JKFIT
  @DF-RKS Final Energy: -1188.20824501565266
    Total Energy =                      -1188.2082450156526647
  Multiplicity = 1
  Basis Set: AUG-CC-PVDZ
    Blend: AUG-CC-PVDZ
  Basis Set: (AUG-CC-PVDZ AUX)
    Blend: AUG-CC-PVDZ-JKFIT
  @DF-RKS Final Energy: -1188.20775227768536
    Total Energy =                      -1188.2077522776853584
    Molecular point group: c1

    Geometry (in Angstrom), charge = 0, multiplicity = 1:

       Center              X                  Y                   Z               Mass
    ------------   -----------------  -----------------  -----------------  -----------------
         N           -1.160395517140    -1.571099033410     0.160264667419    14.003074004430
         C           -2.449401517140    -1.264440033410     0.508302667419    12.000000000000
         C           -2.816128517140     0.256192966590     0.507842667419    12.000000000000
         F           -3.836053517140     0.434853966590    -0.399399332581    18.998403162730
         F           -3.294031517140     0.567299966590     1.761514667419    18.998403162730
         C           -1.674059517140     1.272933966590     0.157878667419    12.000000000000
         C           -0.344029517140     0.720475966590    -0.189267332581    12.000000000000
         C            0.717553482860     1.588875966590    -0.529842332581    12.000000000000
         C            1.979268482860     1.084291966590    -0.868426332581    12.000000000000
         C            2.208339482860    -0.317543033410    -0.890324332581    12.000000000000
         C            1.150910482860    -1.184274033410    -0.538123332581    12.000000000000
         C           -0.114830517140    -0.683386033410    -0.187678332581    12.000000000000
         S            3.731430482860    -1.089323033410    -1.369335332581    31.972071174400
         C            5.034458482860    -0.156288033410    -0.523244332581    12.000000000000
         O           -3.241078517140    -2.151467033410     0.792464667419    15.994914619570
         O           -1.890514517140     2.481122966590     0.172649667419    15.994914619570
         H            2.764418482860     1.788788966590    -1.140916332581     1.007825032230
         H            0.528618482860     2.662809966590    -0.527245332581     1.007825032230
         H           -0.988280517140    -2.567184033410     0.170584667419     1.007825032230
         H            1.312795482860    -2.263041033410    -0.559240332581     1.007825032230
         H            5.313264482860     0.707116966590    -1.134807332581     1.007825032230
         H            4.676328482860     0.182599966590     0.453649667419     1.007825032230
         H            5.904923482860    -0.804976033410    -0.386543332581     1.007825032230
         O            2.866092482860     0.935049966590     1.876511667419    15.994914619570
         H            2.233827482860     0.265994966590     2.140443667419     1.007825032230
         H            2.404418482860     1.772107966590     1.818837667419     1.007825032230

  Charge       = 0
  Multiplicity = 1
  Basis Set: AUG-CC-PVDZ
    Blend: AUG-CC-PVDZ
  Basis Set: (AUG-CC-PVDZ AUX)
    Blend: AUG-CC-PVDZ-JKFIT

    Orbital Energies [Eh]
    ---------------------

    Doubly Occupied:

       1A    -89.073843     2A    -24.873640     3A    -24.873224
       4A    -19.299624     5A    -19.293018     6A    -19.286810
       7A    -14.536123     8A    -10.508061     9A    -10.454406
      10A    -10.433043    11A    -10.406837    12A    -10.381339
      13A    -10.351740    14A    -10.349957    15A    -10.347545
      16A    -10.341459    17A    -10.338978    18A     -8.091155
      19A     -6.040934    20A     -6.036560    21A     -6.030398
      22A     -1.384652    23A     -1.328802    24A     -1.190486
      25A     -1.178009    26A     -1.137626    27A     -1.093404
      28A     -0.998700    29A     -0.936018    30A     -0.902090
      31A     -0.886133    32A     -0.865153    33A     -0.791620
      34A     -0.763781    35A     -0.751082    36A     -0.739634
      37A     -0.694445    38A     -0.678371    39A     -0.668729
      40A     -0.650156    41A     -0.643015    42A     -0.627287
      43A     -0.589116    44A     -0.578659    45A     -0.567147
      46A     -0.562911    47A     -0.555861    48A     -0.553588
      49A     -0.551330    50A     -0.536314    51A     -0.533961
      52A     -0.520870    53A     -0.518157    54A     -0.510631
      55A     -0.498639    56A     -0.495942    57A     -0.491291
      58A     -0.478288    59A     -0.473798    60A     -0.443798
      61A     -0.427430    62A     -0.409752    63A     -0.396604
      64A     -0.382978    65A     -0.369569    66A     -0.340193
      67A     -0.318182

  @DF-RKS Final Energy: -1264.63024976743236

   => Energetics <=

    Nuclear Repulsion Energy =           1334.7541046530805033
    One-Electron Energy =               -4388.4923354672182541
    Two-Electron Energy =                1885.1542733295016205
    DFT Exchange-Correlation Energy =     -96.0290735158172026
    Empirical Dispersion Energy =          -0.0172187669790690
    VV10 Nonlocal Energy =                  0.0000000000000000
    Total Energy =                      -1264.6302497674323604

  Dipole Moment: [D]
     X:     6.1907      Y:    -0.5896      Z:    -0.4758     Total:     6.2369

*** Psi4 exiting successfully. Buy a developer a beer!
