                               Psi4 1.3.2 release

  ==> Input File <==

--------------------------------------------------------------------------
molecule {
0 1
  N                 -0.8329220    -1.4316820     0.0850080
  C                 -2.1158040    -1.1558080     0.4843320
  C                 -2.4289050     0.3591460     0.7054530
  F                 -3.7555890     0.5940930     0.3944060
  F                 -2.2736550     0.6195540     2.0481740
  C                 -1.5199820     1.3601920    -0.0901970
  C                 -0.1640620     0.8757330    -0.4452730
  C                  0.7840340     1.7520530    -1.0162350
  C                  2.0710080     1.3050290    -1.3425650
  C                  2.4281110    -0.0524070    -1.1340790
  C                  1.4580920    -0.9467950    -0.6323440
  C                  0.1650140    -0.5031110    -0.3071010
  S                  4.0263480    -0.7214740    -1.4867930
  C                  4.9860630    -0.3162710    -0.0061480
  O                 -2.9120640    -2.0610510     0.6968400
  O                 -1.8772710     2.5202120    -0.2916330
  H                  2.7862340     2.0217350    -1.7452190
  H                  0.4932850     2.7892110    -1.1843840
  H                 -0.6535010    -2.4233640     0.0118350
  H                  1.7211530    -1.9936930    -0.4758020
  H                  5.0542680     0.7713970     0.0950450
  H                  4.4911080    -0.7384740     0.8741880
  H                  5.9893040    -0.7414380    -0.1033230
--
0 1
  O                 -2.5869800     0.1187010    -2.2863450
  H                 -3.3189780    -0.4968570    -2.3639350
  H                 -2.8648900     0.9493110    -2.6785950
}
memory 16GB
set_num_threads(8)
psi4_io.set_default_path("/scratch/Psi4-ligand")
set maxiter 500
set freeze_core True
set PROPERTIES_ORIGIN ["COM"]
e_dim= energy('wb97x-d/aug-cc-pVDZ',bsse_type='cp')

psi4.print_out('CP Energy = %10.6f' % (e_dim))
clean()
--------------------------------------------------------------------------

    Molecular point group: c1
  Charge       = 0
  Multiplicity = 1
  Basis Set: AUG-CC-PVDZ
    Blend: AUG-CC-PVDZ
  Basis Set: (AUG-CC-PVDZ AUX)
    Blend: AUG-CC-PVDZ-JKFIT
  @DF-RKS Final Energy:   -76.41957093203628
    Total Energy =                        -76.4195709320362795
    Molecular point group: c1
  Basis Set: AUG-CC-PVDZ
    Blend: AUG-CC-PVDZ
  Basis Set: (AUG-CC-PVDZ AUX)
    Blend: AUG-CC-PVDZ-JKFIT
  @DF-RKS Final Energy:   -76.42011457628165
    Total Energy =                        -76.4201145762816481
  Basis Set: AUG-CC-PVDZ
    Blend: AUG-CC-PVDZ
  Basis Set: (AUG-CC-PVDZ AUX)
    Blend: AUG-CC-PVDZ-JKFIT
  @DF-RKS Final Energy: -1188.20534294215827
    Total Energy =                      -1188.2053429421584951
  Multiplicity = 1
  Basis Set: AUG-CC-PVDZ
    Blend: AUG-CC-PVDZ
  Basis Set: (AUG-CC-PVDZ AUX)
    Blend: AUG-CC-PVDZ-JKFIT
  @DF-RKS Final Energy: -1188.20483009379495
    Total Energy =                      -1188.2048300937949534
    Molecular point group: c1

    Geometry (in Angstrom), charge = 0, multiplicity = 1:

       Center              X                  Y                   Z               Mass
    ------------   -----------------  -----------------  -----------------  -----------------
         N           -0.703838392730    -1.513885258170     0.403244324164    14.003074004430
         C           -1.986720392730    -1.238011258170     0.802568324164    12.000000000000
         C           -2.299821392730     0.276942741830     1.023689324164    12.000000000000
         F           -3.626505392730     0.511889741830     0.712642324164    18.998403162730
         F           -2.144571392730     0.537350741830     2.366410324164    18.998403162730
         C           -1.390898392730     1.277988741830     0.228039324164    12.000000000000
         C           -0.034978392730     0.793529741830    -0.127036675836    12.000000000000
         C            0.913117607270     1.669849741830    -0.697998675836    12.000000000000
         C            2.200091607270     1.222825741830    -1.024328675836    12.000000000000
         C            2.557194607270    -0.134610258170    -0.815842675836    12.000000000000
         C            1.587175607270    -1.028998258170    -0.314107675836    12.000000000000
         C            0.294097607270    -0.585314258170     0.011135324164    12.000000000000
         S            4.155431607270    -0.803677258170    -1.168556675836    31.972071174400
         C            5.115146607270    -0.398474258170     0.312088324164    12.000000000000
         O           -2.782980392730    -2.143254258170     1.015076324164    15.994914619570
         O           -1.748187392730     2.438008741830     0.026603324164    15.994914619570
         H            2.915317607270     1.939531741830    -1.426982675836     1.007825032230
         H            0.622368607270     2.707007741830    -0.866147675836     1.007825032230
         H           -0.524417392730    -2.505567258170     0.330071324164     1.007825032230
         H            1.850236607270    -2.075896258170    -0.157565675836     1.007825032230
         H            5.183351607270     0.689193741830     0.413281324164     1.007825032230
         H            4.620191607270    -0.820677258170     1.192424324164     1.007825032230
         H            6.118387607270    -0.823641258170     0.214913324164     1.007825032230
         O           -2.457896392730     0.036497741830    -1.968108675836    15.994914619570
         H           -3.189894392730    -0.579060258170    -2.045698675836     1.007825032230
         H           -2.735806392730     0.867107741830    -2.360358675836     1.007825032230

  Charge       = 0
  Multiplicity = 1
  Basis Set: AUG-CC-PVDZ
    Blend: AUG-CC-PVDZ
  Basis Set: (AUG-CC-PVDZ AUX)
    Blend: AUG-CC-PVDZ-JKFIT

    Orbital Energies [Eh]
    ---------------------

    Doubly Occupied:

       1A    -89.063436     2A    -24.872949     3A    -24.859665
       4A    -19.296250     5A    -19.293464     6A    -19.281083
       7A    -14.527210     8A    -10.500354     9A    -10.448177
      10A    -10.428887    11A    -10.397543    12A    -10.370007
      13A    -10.346949    14A    -10.343285    15A    -10.341487
      16A    -10.340079    17A    -10.335862    18A     -8.080910
      19A     -6.030767    20A     -6.026664    21A     -6.019703
      22A     -1.377964    23A     -1.319161    24A     -1.182843
      25A     -1.170124    26A     -1.138571    27A     -1.084243
      28A     -0.991647    29A     -0.930142    30A     -0.895292
      31A     -0.879861    32A     -0.858722    33A     -0.784822
      34A     -0.756783    35A     -0.743097    36A     -0.732394
      37A     -0.687765    38A     -0.668896    39A     -0.661035
      40A     -0.649735    41A     -0.634908    42A     -0.620875
      43A     -0.582491    44A     -0.572190    45A     -0.561910
      46A     -0.556001    47A     -0.550081    48A     -0.547931
      49A     -0.540851    50A     -0.532242    51A     -0.527883
      52A     -0.520722    53A     -0.509983    54A     -0.507537
      55A     -0.497172    56A     -0.492708    57A     -0.484469
      58A     -0.473071    59A     -0.465751    60A     -0.433602
      61A     -0.423587    62A     -0.412966    63A     -0.390406
      64A     -0.363666    65A     -0.358879    66A     -0.331615
      67A     -0.325965

  @DF-RKS Final Energy: -1264.63497868971240

   => Energetics <=

    Nuclear Repulsion Energy =           1350.5099267129369309
    One-Electron Energy =               -4420.8722027952771896
    Two-Electron Energy =                1901.7639293972947598
    DFT Exchange-Correlation Energy =     -96.0197646253155881
    Empirical Dispersion Energy =          -0.0168673793517434
    VV10 Nonlocal Energy =                  0.0000000000000000
    Total Energy =                      -1264.6349786897123977

  Dipole Moment: [D]
     X:     4.2919      Y:    -0.6783      Z:    -1.7760     Total:     4.6941

*** Psi4 exiting successfully. Buy a developer a beer!
