                               Psi4 1.3.2 release

  ==> Input File <==

--------------------------------------------------------------------------
molecule {
0 1
  N                 -0.9822580    -1.4639280     0.2190630
  C                 -2.2712640    -1.1572690     0.5671010
  C                 -2.6379910     0.3633640     0.5666410
  F                 -3.6579160     0.5420250    -0.3406010
  F                 -3.1158940     0.6744710     1.8203130
  C                 -1.4959220     1.3801050     0.2166770
  C                 -0.1658920     0.8276470    -0.1304690
  C                  0.8956910     1.6960470    -0.4710440
  C                  2.1574060     1.1914630    -0.8096280
  C                  2.3864770    -0.2103720    -0.8315260
  C                  1.3290480    -1.0771030    -0.4793250
  C                  0.0633070    -0.5762150    -0.1288800
  S                  3.9095680    -0.9821520    -1.3105370
  C                  5.2125960    -0.0491170    -0.4644460
  O                 -3.0629410    -2.0442960     0.8512630
  O                 -1.7123770     2.5882940     0.2314480
  H                  2.9425560     1.8959600    -1.0821180
  H                  0.7067560     2.7699810    -0.4684470
  H                 -0.8101430    -2.4600130     0.2293830
  H                  1.4909330    -2.1558700    -0.5004420
  H                  5.4914020     0.8142880    -1.0760090
  H                  4.8544660     0.2897710     0.5124480
  H                  6.0830610    -0.6978050    -0.3277450
--
0 1
  O                  2.8668652     1.0720694     1.3863224
  H                  2.2346002     0.4030144     1.6502544
  H                  2.4051912     1.9091274     1.3286484
}
memory 16GB
set_num_threads(8)
psi4_io.set_default_path("/scratch/Psi4-ligand")
set maxiter 500
set freeze_core True
set PROPERTIES_ORIGIN ["COM"]
e_dim= energy('wb97x-d/aug-cc-pVDZ',bsse_type='cp')

psi4.print_out('CP Energy = %10.6f' % (e_dim))
clean()
--------------------------------------------------------------------------

    Molecular point group: c1
  Charge       = 0
  Multiplicity = 1
  Basis Set: AUG-CC-PVDZ
    Blend: AUG-CC-PVDZ
  Basis Set: (AUG-CC-PVDZ AUX)
    Blend: AUG-CC-PVDZ-JKFIT
  @DF-RKS Final Energy:   -76.41950391812949
    Total Energy =                        -76.4195039181295073
    Molecular point group: c1
  Basis Set: AUG-CC-PVDZ
    Blend: AUG-CC-PVDZ
  Basis Set: (AUG-CC-PVDZ AUX)
    Blend: AUG-CC-PVDZ-JKFIT
  @DF-RKS Final Energy:   -76.42034674887022
    Total Energy =                        -76.4203467488702159
  Basis Set: AUG-CC-PVDZ
    Blend: AUG-CC-PVDZ
  Basis Set: (AUG-CC-PVDZ AUX)
    Blend: AUG-CC-PVDZ-JKFIT
  @DF-RKS Final Energy: -1188.20855618809628
    Total Energy =                      -1188.2085561880962814
  Multiplicity = 1
  Basis Set: AUG-CC-PVDZ
    Blend: AUG-CC-PVDZ
  Basis Set: (AUG-CC-PVDZ AUX)
    Blend: AUG-CC-PVDZ-JKFIT
  @DF-RKS Final Energy: -1188.20775635512359
    Total Energy =                      -1188.2077563551235926
    Molecular point group: c1

    Geometry (in Angstrom), charge = 0, multiplicity = 1:

       Center              X                  Y                   Z               Mass
    ------------   -----------------  -----------------  -----------------  -----------------
         N           -1.148157554299    -1.573158537945     0.198144166897    14.003074004430
         C           -2.437163554299    -1.266499537945     0.546182166897    12.000000000000
         C           -2.803890554299     0.254133462055     0.545722166897    12.000000000000
         F           -3.823815554299     0.432794462055    -0.361519833103    18.998403162730
         F           -3.281793554299     0.565240462055     1.799394166897    18.998403162730
         C           -1.661821554299     1.270874462055     0.195758166897    12.000000000000
         C           -0.331791554299     0.718416462055    -0.151387833103    12.000000000000
         C            0.729791445701     1.586816462055    -0.491962833103    12.000000000000
         C            1.991506445701     1.082232462055    -0.830546833103    12.000000000000
         C            2.220577445701    -0.319602537945    -0.852444833103    12.000000000000
         C            1.163148445701    -1.186333537945    -0.500243833103    12.000000000000
         C           -0.102592554299    -0.685445537945    -0.149798833103    12.000000000000
         S            3.743668445701    -1.091382537945    -1.331455833103    31.972071174400
         C            5.046696445701    -0.158347537945    -0.485364833103    12.000000000000
         O           -3.228840554299    -2.153526537945     0.830344166897    15.994914619570
         O           -1.878276554299     2.479063462055     0.210529166897    15.994914619570
         H            2.776656445701     1.786729462055    -1.103036833103     1.007825032230
         H            0.540856445701     2.660750462055    -0.489365833103     1.007825032230
         H           -0.976042554299    -2.569243537945     0.208464166897     1.007825032230
         H            1.325033445701    -2.265100537945    -0.521360833103     1.007825032230
         H            5.325502445701     0.705057462055    -1.096927833103     1.007825032230
         H            4.688566445701     0.180540462055     0.491529166897     1.007825032230
         H            5.917161445701    -0.807035537945    -0.348663833103     1.007825032230
         O            2.700965645701     0.962838862055     1.365403566897    15.994914619570
         H            2.068700645701     0.293783862055     1.629335566897     1.007825032230
         H            2.239291645701     1.799896862055     1.307729566897     1.007825032230

  Charge       = 0
  Multiplicity = 1
  Basis Set: AUG-CC-PVDZ
    Blend: AUG-CC-PVDZ
  Basis Set: (AUG-CC-PVDZ AUX)
    Blend: AUG-CC-PVDZ-JKFIT

    Orbital Energies [Eh]
    ---------------------

    Doubly Occupied:

       1A    -89.074331     2A    -24.872894     3A    -24.872451
       4A    -19.298952     5A    -19.292657     6A    -19.285735
       7A    -14.534967     8A    -10.507258     9A    -10.453362
      10A    -10.432261    11A    -10.405249    12A    -10.379585
      13A    -10.351244    14A    -10.347620    15A    -10.345952
      16A    -10.345411    17A    -10.339164    18A     -8.091580
      19A     -6.041354    20A     -6.036990    21A     -6.030837
      22A     -1.383887    23A     -1.328041    24A     -1.189457
      25A     -1.177348    26A     -1.147462    27A     -1.092377
      28A     -0.998723    29A     -0.936043    30A     -0.901843
      31A     -0.887235    32A     -0.865148    33A     -0.791900
      34A     -0.764084    35A     -0.750626    36A     -0.739952
      37A     -0.695584    38A     -0.678515    39A     -0.667969
      40A     -0.658105    41A     -0.642548    42A     -0.626786
      43A     -0.588817    44A     -0.580173    45A     -0.566823
      46A     -0.562379    47A     -0.556012    48A     -0.553595
      49A     -0.552256    50A     -0.538357    51A     -0.534343
      52A     -0.522288    53A     -0.518772    54A     -0.513843
      55A     -0.500648    56A     -0.496539    57A     -0.494173
      58A     -0.478359    59A     -0.473769    60A     -0.455880
      61A     -0.427415    62A     -0.398847    63A     -0.395763
      64A     -0.382664    65A     -0.368843    66A     -0.335902
      67A     -0.312119

  @DF-RKS Final Energy: -1264.60549603224058

   => Energetics <=

    Nuclear Repulsion Energy =           1350.7978363421609629
    One-Electron Energy =               -4420.4904423633242914
    Two-Electron Energy =                1901.1651062472803915
    DFT Exchange-Correlation Energy =     -96.0600334795953472
    Empirical Dispersion Energy =          -0.0179627787618970
    VV10 Nonlocal Energy =                  0.0000000000000000
    Total Energy =                      -1264.6054960322403531

  Dipole Moment: [D]
     X:     6.5428      Y:    -0.5385      Z:    -0.4924     Total:     6.5834

*** Psi4 exiting successfully. Buy a developer a beer!
