                               Psi4 1.3.2 release

  ==> Input File <==

--------------------------------------------------------------------------
molecule {
0 1
  N                 -0.7735580    -1.3877650     0.3762830
  C                 -2.0506670    -1.1155840     0.7908700
  C                 -2.5043840     0.3774880     0.6774080
  F                 -3.5962270     0.4156400    -0.1601540
  F                 -2.9061990     0.7850010     1.9298970
  C                 -1.4528850     1.4123530     0.1460210
  C                 -0.1227770     0.8977000    -0.2526910
  C                  0.8620890     1.7845470    -0.7401720
  C                  2.1113680     1.3117470    -1.1603950
  C                  2.4259530    -0.0670330    -1.0508120
  C                  1.4556270    -0.9494480    -0.5289330
  C                  0.1886820    -0.4855360    -0.1346250
  S                  3.9638070    -0.7835970    -1.5571510
  C                  5.1473010    -0.1867290    -0.3239010
  O                 -2.7686020    -2.0098140     1.2138050
  O                 -1.7369170     2.6034530     0.0621640
  H                  2.8251380     2.0222360    -1.5760210
  H                  0.6132780     2.8438570    -0.8113500
  H                 -0.5385400    -2.3658440     0.4783350
  H                  1.6887170    -2.0114780    -0.4410070
  H                  5.2957800     0.8895290    -0.4541750
  H                  4.7632760    -0.3852570     0.6822070
  H                  6.0990420    -0.7082150    -0.4615910
--
0 1
  O                  2.8394786     0.2489958     1.7328326
  H                  2.4250506     0.4445558     0.8907896
  H                  2.7700746     1.0255588     2.2885246
}
memory 16GB
set_num_threads(8)
psi4_io.set_default_path("/scratch/Psi4-ligand")
set maxiter 500
set freeze_core True
set PROPERTIES_ORIGIN ["COM"]
e_dim= energy('wb97x-d/aug-cc-pVDZ',bsse_type='cp')

psi4.print_out('CP Energy = %10.6f' % (e_dim))
clean()
--------------------------------------------------------------------------

    Molecular point group: c1
  Charge       = 0
  Multiplicity = 1
  Basis Set: AUG-CC-PVDZ
    Blend: AUG-CC-PVDZ
  Basis Set: (AUG-CC-PVDZ AUX)
    Blend: AUG-CC-PVDZ-JKFIT
  @DF-RKS Final Energy:   -76.41946858332446
    Total Energy =                        -76.4194685833244591
    Molecular point group: c1
  Basis Set: AUG-CC-PVDZ
    Blend: AUG-CC-PVDZ
  Basis Set: (AUG-CC-PVDZ AUX)
    Blend: AUG-CC-PVDZ-JKFIT
  @DF-RKS Final Energy:   -76.42025634069070
    Total Energy =                        -76.4202563406906847
  Basis Set: AUG-CC-PVDZ
    Blend: AUG-CC-PVDZ
  Basis Set: (AUG-CC-PVDZ AUX)
    Blend: AUG-CC-PVDZ-JKFIT
  @DF-RKS Final Energy: -1188.20729569876858
    Total Energy =                      -1188.2072956987685757
  Multiplicity = 1
  Basis Set: AUG-CC-PVDZ
    Blend: AUG-CC-PVDZ
  Basis Set: (AUG-CC-PVDZ AUX)
    Blend: AUG-CC-PVDZ-JKFIT
  @DF-RKS Final Energy: -1188.20639790237465
    Total Energy =                      -1188.2063979023746469
    Molecular point group: c1

    Geometry (in Angstrom), charge = 0, multiplicity = 1:

       Center              X                  Y                   Z               Mass
    ------------   -----------------  -----------------  -----------------  -----------------
         N           -1.020978806530    -1.500108397155     0.349829022912    14.003074004430
         C           -2.298087806530    -1.227927397155     0.764416022912    12.000000000000
         C           -2.751804806530     0.265144602845     0.650954022912    12.000000000000
         F           -3.843647806530     0.303296602845    -0.186607977088    18.998403162730
         F           -3.153619806530     0.672657602845     1.903443022912    18.998403162730
         C           -1.700305806530     1.300009602845     0.119567022912    12.000000000000
         C           -0.370197806530     0.785356602845    -0.279144977088    12.000000000000
         C            0.614668193470     1.672203602845    -0.766625977088    12.000000000000
         C            1.863947193470     1.199403602845    -1.186848977088    12.000000000000
         C            2.178532193470    -0.179376397155    -1.077265977088    12.000000000000
         C            1.208206193470    -1.061791397155    -0.555386977088    12.000000000000
         C           -0.058738806530    -0.597879397155    -0.161078977088    12.000000000000
         S            3.716386193470    -0.895940397155    -1.583604977088    31.972071174400
         C            4.899880193470    -0.299072397155    -0.350354977088    12.000000000000
         O           -3.016022806530    -2.122157397155     1.187351022912    15.994914619570
         O           -1.984337806530     2.491109602845     0.035710022912    15.994914619570
         H            2.577717193470     1.909892602845    -1.602474977088     1.007825032230
         H            0.365857193470     2.731513602845    -0.837803977088     1.007825032230
         H           -0.785960806530    -2.478187397155     0.451881022912     1.007825032230
         H            1.441296193470    -2.123821397155    -0.467460977088     1.007825032230
         H            5.048359193470     0.777185602845    -0.480628977088     1.007825032230
         H            4.515855193470    -0.497600397155     0.655753022912     1.007825032230
         H            5.851621193470    -0.820558397155    -0.488044977088     1.007825032230
         O            2.592057793470     0.136652402845     1.706378622912    15.994914619570
         H            2.177629793470     0.332212402845     0.864335622912     1.007825032230
         H            2.522653793470     0.913215402845     2.262070622912     1.007825032230

  Charge       = 0
  Multiplicity = 1
  Basis Set: AUG-CC-PVDZ
    Blend: AUG-CC-PVDZ
  Basis Set: (AUG-CC-PVDZ AUX)
    Blend: AUG-CC-PVDZ-JKFIT

    Orbital Energies [Eh]
    ---------------------

    Doubly Occupied:

       1A    -89.070293     2A    -24.876984     3A    -24.876118
       4A    -19.307123     5A    -19.289745     6A    -19.282115
       7A    -14.539418     8A    -10.511961     9A    -10.457442
      10A    -10.439383    11A    -10.412931    12A    -10.384384
      13A    -10.361316    14A    -10.358766    15A    -10.354665
      16A    -10.350457    17A    -10.335268    18A     -8.087650
      19A     -6.037542    20A     -6.033315    21A     -6.026509
      22A     -1.387850    23A     -1.331917    24A     -1.193293
      25A     -1.184762    26A     -1.129895    27A     -1.097260
      28A     -1.007948    29A     -0.941163    30A     -0.905714
      31A     -0.893580    32A     -0.868307    33A     -0.793741
      34A     -0.770103    35A     -0.755921    36A     -0.742297
      37A     -0.699833    38A     -0.683243    39A     -0.671952
      40A     -0.652017    41A     -0.645276    42A     -0.632247
      43A     -0.595101    44A     -0.583562    45A     -0.569484
      46A     -0.566013    47A     -0.561829    48A     -0.557273
      49A     -0.554737    50A     -0.538388    51A     -0.528434
      52A     -0.525542    53A     -0.521287    54A     -0.515169
      55A     -0.503298    56A     -0.500455    57A     -0.487042
      58A     -0.479580    59A     -0.477360    60A     -0.441941
      61A     -0.425487    62A     -0.412945    63A     -0.400544
      64A     -0.376068    65A     -0.374634    66A     -0.345359
      67A     -0.328708

  @DF-RKS Final Energy: -1264.62471217744110

   => Energetics <=

    Nuclear Repulsion Energy =           1348.7732773927089056
    One-Electron Energy =               -4416.1282868854459593
    Two-Electron Energy =                1898.7966741988423109
    DFT Exchange-Correlation Energy =     -96.0487447548697730
    Empirical Dispersion Energy =          -0.0176321286768634
    VV10 Nonlocal Energy =                  0.0000000000000000
    Total Energy =                      -1264.6247121774413245

  Dipole Moment: [D]
     X:     5.8162      Y:     0.3585      Z:    -1.0493     Total:     5.9209

*** Psi4 exiting successfully. Buy a developer a beer!
