                               Psi4 1.3.2 release

  ==> Input File <==

--------------------------------------------------------------------------
molecule {
0 1
  N                 -0.7685550    -1.3927420     0.3453050
  C                 -2.0454150    -1.1492830     0.7782580
  C                 -2.5270200     0.3364600     0.6883900
  F                 -3.6014700     0.3707270    -0.1712770
  F                 -2.9637720     0.7084010     1.9405340
  C                 -1.4851110     1.4030980     0.2004280
  C                 -0.1517140     0.9179150    -0.2225990
  C                  0.8248890     1.8303570    -0.6770190
  C                  2.0740430     1.3877300    -1.1289330
  C                  2.4015320     0.0083160    -1.0705750
  C                  1.4441770    -0.9018200    -0.5728380
  C                  0.1767120    -0.4643990    -0.1514740
  S                  3.9507640    -0.6695320    -1.5931640
  C                  5.0717630    -0.3031620    -0.2197520
  O                 -2.7437950    -2.0628100     1.1926300
  O                 -1.7801450     2.5938830     0.1635240
  H                  2.7815910     2.1208260    -1.5142670
  H                  0.5666820     2.8897050    -0.7056400
  H                 -0.5187200    -2.3693380     0.4195400
  H                  1.6892370    -1.9636950    -0.5229130
  H                  5.4085280     0.7353380    -0.2958230
  H                  4.5520560    -0.4472920     0.7330920
  H                  5.9333610    -0.9753140    -0.2724440
--
0 1
  O                  3.1277673     1.5103503     1.7105739
  H                  2.6045813     1.6849703     0.9261729
  H                  2.8244173     2.0922793     2.4075929
}
memory 16GB
set_num_threads(8)
psi4_io.set_default_path("/scratch/Psi4-ligand")
set maxiter 500
set freeze_core True
set PROPERTIES_ORIGIN ["COM"]
e_dim= energy('wb97x-d/aug-cc-pVDZ',bsse_type='cp')

psi4.print_out('CP Energy = %10.6f' % (e_dim))
clean()
--------------------------------------------------------------------------

    Molecular point group: c1
  Charge       = 0
  Multiplicity = 1
  Basis Set: AUG-CC-PVDZ
    Blend: AUG-CC-PVDZ
  Basis Set: (AUG-CC-PVDZ AUX)
    Blend: AUG-CC-PVDZ-JKFIT
  @DF-RKS Final Energy:   -76.41947771565182
    Total Energy =                        -76.4194777156518370
    Molecular point group: c1
  Basis Set: AUG-CC-PVDZ
    Blend: AUG-CC-PVDZ
  Basis Set: (AUG-CC-PVDZ AUX)
    Blend: AUG-CC-PVDZ-JKFIT
  @DF-RKS Final Energy:   -76.42008141679192
    Total Energy =                        -76.4200814167919162
  Basis Set: AUG-CC-PVDZ
    Blend: AUG-CC-PVDZ
  Basis Set: (AUG-CC-PVDZ AUX)
    Blend: AUG-CC-PVDZ-JKFIT
  @DF-RKS Final Energy: -1188.20598425587627
    Total Energy =                      -1188.2059842558760465
  Multiplicity = 1
  Basis Set: AUG-CC-PVDZ
    Blend: AUG-CC-PVDZ
  Basis Set: (AUG-CC-PVDZ AUX)
    Blend: AUG-CC-PVDZ-JKFIT
  @DF-RKS Final Energy: -1188.20538351868618
    Total Energy =                      -1188.2053835186861761
    Molecular point group: c1

    Geometry (in Angstrom), charge = 0, multiplicity = 1:

       Center              X                  Y                   Z               Mass
    ------------   -----------------  -----------------  -----------------  -----------------
         N           -1.013515813231    -1.595114114662     0.309926197227    14.003074004430
         C           -2.290375813231    -1.351655114662     0.742879197227    12.000000000000
         C           -2.771980813231     0.134087885338     0.653011197227    12.000000000000
         F           -3.846430813231     0.168354885338    -0.206655802773    18.998403162730
         F           -3.208732813231     0.506028885338     1.905155197227    18.998403162730
         C           -1.730071813231     1.200725885338     0.165049197227    12.000000000000
         C           -0.396674813231     0.715542885338    -0.257977802773    12.000000000000
         C            0.579928186769     1.627984885338    -0.712397802773    12.000000000000
         C            1.829082186769     1.185357885338    -1.164311802773    12.000000000000
         C            2.156571186769    -0.194056114662    -1.105953802773    12.000000000000
         C            1.199216186769    -1.104192114662    -0.608216802773    12.000000000000
         C           -0.068248813231    -0.666771114662    -0.186852802773    12.000000000000
         S            3.705803186769    -0.871904114662    -1.628542802773    31.972071174400
         C            4.826802186769    -0.505534114662    -0.255130802773    12.000000000000
         O           -2.988755813231    -2.265182114662     1.157251197227    15.994914619570
         O           -2.025105813231     2.391510885338     0.128145197227    15.994914619570
         H            2.536630186769     1.918453885338    -1.549645802773     1.007825032230
         H            0.321721186769     2.687332885338    -0.741018802773     1.007825032230
         H           -0.763680813231    -2.571710114662     0.384161197227     1.007825032230
         H            1.444276186769    -2.166067114662    -0.558291802773     1.007825032230
         H            5.163567186769     0.532965885338    -0.331201802773     1.007825032230
         H            4.307095186769    -0.649664114662     0.697713197227     1.007825032230
         H            5.688400186769    -1.177686114662    -0.307822802773     1.007825032230
         O            2.882806486769     1.307978185338     1.675195097227    15.994914619570
         H            2.359620486769     1.482598185338     0.890794097227     1.007825032230
         H            2.579456486769     1.889907185338     2.372214097227     1.007825032230

  Charge       = 0
  Multiplicity = 1
  Basis Set: AUG-CC-PVDZ
    Blend: AUG-CC-PVDZ
  Basis Set: (AUG-CC-PVDZ AUX)
    Blend: AUG-CC-PVDZ-JKFIT

    Orbital Energies [Eh]
    ---------------------

    Doubly Occupied:

       1A    -89.067519     2A    -24.878023     3A    -24.876178
       4A    -19.307138     5A    -19.290488     6A    -19.282405
       7A    -14.540026     8A    -10.512511     9A    -10.458106
      10A    -10.439588    11A    -10.412540    12A    -10.383156
      13A    -10.360742    14A    -10.358703    15A    -10.353347
      16A    -10.348893    17A    -10.335482    18A     -8.085000
      19A     -6.034911    20A     -6.030677    21A     -6.023821
      22A     -1.388383    23A     -1.332424    24A     -1.194023
      25A     -1.184884    26A     -1.126940    27A     -1.097668
      28A     -1.005460    29A     -0.939605    30A     -0.904952
      31A     -0.893785    32A     -0.866824    33A     -0.793107
      34A     -0.769874    35A     -0.756022    36A     -0.740679
      37A     -0.699660    38A     -0.682599    39A     -0.672442
      40A     -0.646820    41A     -0.643451    42A     -0.632687
      43A     -0.594598    44A     -0.582743    45A     -0.570580
      46A     -0.566160    47A     -0.561171    48A     -0.557878
      49A     -0.553659    50A     -0.538481    51A     -0.528210
      52A     -0.523629    53A     -0.521456    54A     -0.514952
      55A     -0.503362    56A     -0.498820    57A     -0.487406
      58A     -0.479614    59A     -0.477379    60A     -0.441639
      61A     -0.421449    62A     -0.414594    63A     -0.401001
      64A     -0.374978    65A     -0.371458    66A     -0.344897
      67A     -0.329956

  @DF-RKS Final Energy: -1264.62983512318806

   => Energetics <=

    Nuclear Repulsion Energy =           1335.7541607386037867
    One-Electron Energy =               -4390.1926708773889914
    Two-Electron Energy =                1885.8589950925402263
    DFT Exchange-Correlation Energy =     -96.0333092214404900
    Empirical Dispersion Energy =          -0.0170108555026126
    VV10 Nonlocal Energy =                  0.0000000000000000
    Total Energy =                      -1264.6298351231880588

  Dipole Moment: [D]
     X:     5.2517      Y:    -0.1322      Z:    -0.6867     Total:     5.2981

*** Psi4 exiting successfully. Buy a developer a beer!
