                               Psi4 1.3.2 release

  ==> Input File <==

--------------------------------------------------------------------------
molecule {
0 1
  N                 -0.9676160    -1.4549240     0.2093220
  C                 -2.2516760    -1.1474040     0.5732680
  C                 -2.6107660     0.3750310     0.5977090
  F                 -3.6825620     0.5612650    -0.2465570
  F                 -3.0110640     0.6832050     1.8787410
  C                 -1.4864710     1.3888710     0.1866270
  C                 -0.1594330     0.8356860    -0.1693950
  C                  0.8949590     1.7010320    -0.5387870
  C                  2.1512030     1.1968010    -0.8958420
  C                  2.3936020    -0.2024380    -0.8646550
  C                  1.3398080    -1.0681870    -0.4980230
  C                  0.0735220    -0.5672840    -0.1515180
  S                  3.9172910    -0.9750520    -1.3417990
  C                  5.2135560    -0.0666170    -0.4589820
  O                 -3.0424390    -2.0342170     0.8612460
  O                 -1.7101850     2.5957460     0.1758760
  H                  2.9264970     1.8980460    -1.2020810
  H                  0.7003320     2.7739000    -0.5549490
  H                 -0.7969600    -2.4513040     0.2094560
  H                  1.5092480    -2.1455980    -0.4926220
  H                  5.4188490     0.8717440    -0.9825500
  H                  4.8876330     0.1426680     0.5640310
  H                  6.1202410    -0.6780710    -0.4326100
--
0 1
  O                  3.0427336     0.0979484     2.5080506
  H                  2.6640046    -0.5687226     3.0817726
  H                  2.4396786     0.8420094     2.4759326
}
memory 16GB
set_num_threads(8)
psi4_io.set_default_path("/scratch/Psi4-ligand")
set maxiter 500
set freeze_core True
set PROPERTIES_ORIGIN ["COM"]
e_dim= energy('wb97x-d/aug-cc-pVDZ',bsse_type='cp')

psi4.print_out('CP Energy = %10.6f' % (e_dim))
clean()
--------------------------------------------------------------------------

    Molecular point group: c1
  Charge       = 0
  Multiplicity = 1
  Basis Set: AUG-CC-PVDZ
    Blend: AUG-CC-PVDZ
  Basis Set: (AUG-CC-PVDZ AUX)
    Blend: AUG-CC-PVDZ-JKFIT
  @DF-RKS Final Energy:   -76.41948057938848
    Total Energy =                        -76.4194805793884484
    Molecular point group: c1
  Basis Set: AUG-CC-PVDZ
    Blend: AUG-CC-PVDZ
  Basis Set: (AUG-CC-PVDZ AUX)
    Blend: AUG-CC-PVDZ-JKFIT
  @DF-RKS Final Energy:   -76.41976674729453
    Total Energy =                        -76.4197667472945170
  Basis Set: AUG-CC-PVDZ
    Blend: AUG-CC-PVDZ
  Basis Set: (AUG-CC-PVDZ AUX)
    Blend: AUG-CC-PVDZ-JKFIT
  @DF-RKS Final Energy: -1188.20821545386184
    Total Energy =                      -1188.2082154538618397
  Multiplicity = 1
  Basis Set: AUG-CC-PVDZ
    Blend: AUG-CC-PVDZ
  Basis Set: (AUG-CC-PVDZ AUX)
    Blend: AUG-CC-PVDZ-JKFIT
  @DF-RKS Final Energy: -1188.20778342981225
    Total Energy =                      -1188.2077834298122525
    Molecular point group: c1

    Geometry (in Angstrom), charge = 0, multiplicity = 1:

       Center              X                  Y                   Z               Mass
    ------------   -----------------  -----------------  -----------------  -----------------
         N           -1.158968349938    -1.503498678570     0.118156186674    14.003074004430
         C           -2.443028349938    -1.195978678570     0.482102186674    12.000000000000
         C           -2.802118349938     0.326456321430     0.506543186674    12.000000000000
         F           -3.873914349938     0.512690321430    -0.337722813326    18.998403162730
         F           -3.202416349938     0.634630321430     1.787575186674    18.998403162730
         C           -1.677823349938     1.340296321430     0.095461186674    12.000000000000
         C           -0.350785349938     0.787111321430    -0.260560813326    12.000000000000
         C            0.703606650062     1.652457321430    -0.629952813326    12.000000000000
         C            1.959850650062     1.148226321430    -0.987007813326    12.000000000000
         C            2.202249650062    -0.251012678570    -0.955820813326    12.000000000000
         C            1.148455650062    -1.116761678570    -0.589188813326    12.000000000000
         C           -0.117830349938    -0.615858678570    -0.242683813326    12.000000000000
         S            3.725938650062    -1.023626678570    -1.432964813326    31.972071174400
         C            5.022203650062    -0.115191678570    -0.550147813326    12.000000000000
         O           -3.233791349938    -2.082791678570     0.770080186674    15.994914619570
         O           -1.901537349938     2.547171321430     0.084710186674    15.994914619570
         H            2.735144650062     1.849471321430    -1.293246813326     1.007825032230
         H            0.508979650062     2.725325321430    -0.646114813326     1.007825032230
         H           -0.988312349938    -2.499878678570     0.118290186674     1.007825032230
         H            1.317895650062    -2.194172678570    -0.583787813326     1.007825032230
         H            5.227496650062     0.823169321430    -1.073715813326     1.007825032230
         H            4.696280650062     0.094093321430     0.472865186674     1.007825032230
         H            5.928888650062    -0.726645678570    -0.523775813326     1.007825032230
         O            2.851381250062     0.049373721430     2.416884786674    15.994914619570
         H            2.472652250062    -0.617297278570     2.990606786674     1.007825032230
         H            2.248326250062     0.793434721430     2.384766786674     1.007825032230

  Charge       = 0
  Multiplicity = 1
  Basis Set: AUG-CC-PVDZ
    Blend: AUG-CC-PVDZ
  Basis Set: (AUG-CC-PVDZ AUX)
    Blend: AUG-CC-PVDZ-JKFIT

    Orbital Energies [Eh]
    ---------------------

    Doubly Occupied:

       1A    -89.071522     2A    -24.873497     3A    -24.872083
       4A    -19.298416     5A    -19.293472     6A    -19.285853
       7A    -14.534978     8A    -10.507243     9A    -10.453473
      10A    -10.431846    11A    -10.404707    12A    -10.379776
      13A    -10.350310    14A    -10.349390    15A    -10.345038
      16A    -10.339861    17A    -10.339568    18A     -8.088832
      19A     -6.038637    20A     -6.034302    21A     -6.027981
      22A     -1.383977    23A     -1.328172    24A     -1.189501
      25A     -1.176773    26A     -1.135665    27A     -1.092131
      28A     -0.996959    29A     -0.934342    30A     -0.900628
      31A     -0.884753    32A     -0.863931    33A     -0.790399
      34A     -0.762562    35A     -0.749746    36A     -0.738303
      37A     -0.692915    38A     -0.677145    39A     -0.668065
      40A     -0.648472    41A     -0.641557    42A     -0.626249
      43A     -0.587548    44A     -0.577203    45A     -0.565837
      46A     -0.561831    47A     -0.553526    48A     -0.552255
      49A     -0.549926    50A     -0.535196    51A     -0.532658
      52A     -0.520252    53A     -0.517402    54A     -0.507863
      55A     -0.497256    56A     -0.493754    57A     -0.491115
      58A     -0.477177    59A     -0.472446    60A     -0.438294
      61A     -0.422602    62A     -0.417853    63A     -0.395585
      64A     -0.378436    65A     -0.368475    66A     -0.339410
      67A     -0.318542

  @DF-RKS Final Energy: -1264.63250494831505

   => Energetics <=

    Nuclear Repulsion Energy =           1324.6302615539336784
    One-Electron Energy =               -4368.4332788045430789
    Two-Electron Energy =                1875.2048547704209795
    DFT Exchange-Correlation Energy =     -96.0184419871651755
    Empirical Dispersion Energy =          -0.0159004809613210
    VV10 Nonlocal Energy =                  0.0000000000000000
    Total Energy =                      -1264.6325049483152725

  Dipole Moment: [D]
     X:     6.2010      Y:    -0.9151      Z:     0.0993     Total:     6.2690

*** Psi4 exiting successfully. Buy a developer a beer!
