                               Psi4 1.3.2 release

  ==> Input File <==

--------------------------------------------------------------------------
molecule {
0 1
  N                 -0.9782100    -1.3675700    -0.0527530
  C                 -2.2531490    -1.0840870     0.3652430
  C                 -2.5284270     0.4178140     0.7045670
  F                 -3.8206750     0.7286450     0.3229830
  F                 -2.4611000     0.5483650     2.0729670
  C                 -1.5431250     1.4604730     0.0715130
  C                 -0.2162180     0.9523050    -0.3492600
  C                  0.7709500     1.8438230    -0.8220770
  C                  2.0352310     1.3795420    -1.2057160
  C                  2.3341780    -0.0063160    -1.1452420
  C                  1.3275290    -0.9066280    -0.7343480
  C                  0.0540120    -0.4457660    -0.3585310
  S                  3.9004990    -0.7023180    -1.5798170
  C                  4.9455830    -0.3095440    -0.1541970
  O                 -3.0799340    -1.9783730     0.4939980
  O                 -1.8353400     2.6535240     0.0187490
  H                  2.7770320     2.1038670    -1.5404780
  H                  0.5276530     2.9054730    -0.8695930
  H                 -0.8317790    -2.3551090    -0.2096690
  H                  1.5449830    -1.9747330    -0.6936250
  H                  5.1390170     0.7673160    -0.1339530
  H                  4.4353630    -0.6104790     0.7663910
  H                  5.8915050    -0.8515650    -0.2448350
--
0 1
  O                 -3.1319102     0.3254586    -1.7223506
  H                 -3.7788222    -0.3828604    -1.7465276
  H                 -3.5920022     1.1450736    -1.9141316
}
memory 16GB
set_num_threads(8)
psi4_io.set_default_path("/scratch/Psi4-ligand")
set maxiter 500
set freeze_core True
set PROPERTIES_ORIGIN ["COM"]
e_dim= energy('wb97x-d/aug-cc-pVDZ',bsse_type='cp')

psi4.print_out('CP Energy = %10.6f' % (e_dim))
clean()
--------------------------------------------------------------------------

    Molecular point group: c1
  Charge       = 0
  Multiplicity = 1
  Basis Set: AUG-CC-PVDZ
    Blend: AUG-CC-PVDZ
  Basis Set: (AUG-CC-PVDZ AUX)
    Blend: AUG-CC-PVDZ-JKFIT
  @DF-RKS Final Energy:   -76.41956309426756
    Total Energy =                        -76.4195630942675734
    Molecular point group: c1
  Basis Set: AUG-CC-PVDZ
    Blend: AUG-CC-PVDZ
  Basis Set: (AUG-CC-PVDZ AUX)
    Blend: AUG-CC-PVDZ-JKFIT
  @DF-RKS Final Energy:   -76.42037332715954
    Total Energy =                        -76.4203733271595382
  Basis Set: AUG-CC-PVDZ
    Blend: AUG-CC-PVDZ
  Basis Set: (AUG-CC-PVDZ AUX)
    Blend: AUG-CC-PVDZ-JKFIT
  @DF-RKS Final Energy: -1188.20626961182279
    Total Energy =                      -1188.2062696118227905
  Multiplicity = 1
  Basis Set: AUG-CC-PVDZ
    Blend: AUG-CC-PVDZ
  Basis Set: (AUG-CC-PVDZ AUX)
    Blend: AUG-CC-PVDZ-JKFIT
  @DF-RKS Final Energy: -1188.20527959501715
    Total Energy =                      -1188.2052795950171458
    Molecular point group: c1

    Geometry (in Angstrom), charge = 0, multiplicity = 1:

       Center              X                  Y                   Z               Mass
    ------------   -----------------  -----------------  -----------------  -----------------
         N           -0.726427228818    -1.517107301768     0.235537136087    14.003074004430
         C           -2.001366228818    -1.233624301768     0.653533136087    12.000000000000
         C           -2.276644228818     0.268276698232     0.992857136087    12.000000000000
         F           -3.568892228818     0.579107698232     0.611273136087    18.998403162730
         F           -2.209317228818     0.398827698232     2.361257136087    18.998403162730
         C           -1.291342228818     1.310935698232     0.359803136087    12.000000000000
         C            0.035564771182     0.802767698232    -0.060969863913    12.000000000000
         C            1.022732771182     1.694285698232    -0.533786863913    12.000000000000
         C            2.287013771182     1.230004698232    -0.917425863913    12.000000000000
         C            2.585960771182    -0.155853301768    -0.856951863913    12.000000000000
         C            1.579311771182    -1.056165301768    -0.446057863913    12.000000000000
         C            0.305794771182    -0.595303301768    -0.070240863913    12.000000000000
         S            4.152281771182    -0.851855301768    -1.291526863913    31.972071174400
         C            5.197365771182    -0.459081301768     0.134093136087    12.000000000000
         O           -2.828151228818    -2.127910301768     0.782288136087    15.994914619570
         O           -1.583557228818     2.503986698232     0.307039136087    15.994914619570
         H            3.028814771182     1.954329698232    -1.252187863913     1.007825032230
         H            0.779435771182     2.755935698232    -0.581302863913     1.007825032230
         H           -0.579996228818    -2.504646301768     0.078621136087     1.007825032230
         H            1.796765771182    -2.124270301768    -0.405334863913     1.007825032230
         H            5.390799771182     0.617778698232     0.154337136087     1.007825032230
         H            4.687145771182    -0.760016301768     1.054681136087     1.007825032230
         H            6.143287771182    -1.001102301768     0.043455136087     1.007825032230
         O           -2.880127428818     0.175921298232    -1.434060463913    15.994914619570
         H           -3.527039428818    -0.532397701768    -1.458237463913     1.007825032230
         H           -3.340219428818     0.995536298232    -1.625841463913     1.007825032230

  Charge       = 0
  Multiplicity = 1
  Basis Set: AUG-CC-PVDZ
    Blend: AUG-CC-PVDZ
  Basis Set: (AUG-CC-PVDZ AUX)
    Blend: AUG-CC-PVDZ-JKFIT

    Orbital Energies [Eh]
    ---------------------

    Doubly Occupied:

       1A    -89.064654     2A    -24.870021     3A    -24.851167
       4A    -19.293123     5A    -19.284836     6A    -19.280932
       7A    -14.527446     8A    -10.498400     9A    -10.448668
      10A    -10.427831    11A    -10.398525    12A    -10.371231
      13A    -10.346953    14A    -10.343586    15A    -10.342037
      16A    -10.340831    17A    -10.336131    18A     -8.082143
      19A     -6.031991    20A     -6.027875    21A     -6.020964
      22A     -1.375614    23A     -1.317569    24A     -1.183341
      25A     -1.170531    26A     -1.134310    27A     -1.084757
      28A     -0.992338    29A     -0.930708    30A     -0.895166
      31A     -0.880104    32A     -0.858803    33A     -0.785374
      34A     -0.757162    35A     -0.743246    36A     -0.732821
      37A     -0.687518    38A     -0.670193    39A     -0.661179
      40A     -0.646603    41A     -0.635464    42A     -0.621484
      43A     -0.582732    44A     -0.572269    45A     -0.560964
      46A     -0.556945    47A     -0.549664    48A     -0.547839
      49A     -0.540106    50A     -0.532431    51A     -0.529315
      52A     -0.520633    53A     -0.516649    54A     -0.504119
      55A     -0.498388    56A     -0.491703    57A     -0.484041
      58A     -0.471670    59A     -0.465854    60A     -0.434558
      61A     -0.413839    62A     -0.399496    63A     -0.390484
      64A     -0.363891    65A     -0.361193    66A     -0.333183
      67A     -0.324719

  @DF-RKS Final Energy: -1264.61696040826700

   => Energetics <=

    Nuclear Repulsion Energy =           1359.2751660088256358
    One-Electron Energy =               -4438.4195008605820476
    Two-Electron Energy =                1910.5958555649167465
    DFT Exchange-Correlation Energy =     -96.0516443597892930
    Empirical Dispersion Energy =          -0.0168367616378710
    VV10 Nonlocal Energy =                  0.0000000000000000
    Total Energy =                      -1264.6169604082670048

  Dipole Moment: [D]
     X:     4.2113      Y:    -0.7959      Z:    -1.4077     Total:     4.5111

*** Psi4 exiting successfully. Buy a developer a beer!
