                               Psi4 1.3.2 release

  ==> Input File <==

--------------------------------------------------------------------------
molecule {
0 1
  N                 -0.9822580    -1.4639280     0.2190630
  C                 -2.2712640    -1.1572690     0.5671010
  C                 -2.6379910     0.3633640     0.5666410
  F                 -3.6579160     0.5420250    -0.3406010
  F                 -3.1158940     0.6744710     1.8203130
  C                 -1.4959220     1.3801050     0.2166770
  C                 -0.1658920     0.8276470    -0.1304690
  C                  0.8956910     1.6960470    -0.4710440
  C                  2.1574060     1.1914630    -0.8096280
  C                  2.3864770    -0.2103720    -0.8315260
  C                  1.3290480    -1.0771030    -0.4793250
  C                  0.0633070    -0.5762150    -0.1288800
  S                  3.9095680    -0.9821520    -1.3105370
  C                  5.2125960    -0.0491170    -0.4644460
  O                 -3.0629410    -2.0442960     0.8512630
  O                 -1.7123770     2.5882940     0.2314480
  H                  2.9425560     1.8959600    -1.0821180
  H                  0.7067560     2.7699810    -0.4684470
  H                 -0.8101430    -2.4600130     0.2293830
  H                  1.4909330    -2.1558700    -0.5004420
  H                  5.4914020     0.8142880    -1.0760090
  H                  4.8544660     0.2897710     0.5124480
  H                  6.0830610    -0.6978050    -0.3277450
--
0 1
  O                  3.1329124     1.0272968     2.2098038
  H                  2.5006474     0.3582418     2.4737358
  H                  2.6712384     1.8643548     2.1521298
}
memory 16GB
set_num_threads(8)
psi4_io.set_default_path("/scratch/Psi4-ligand")
set maxiter 500
set freeze_core True
set PROPERTIES_ORIGIN ["COM"]
e_dim= energy('wb97x-d/aug-cc-pVDZ',bsse_type='cp')

psi4.print_out('CP Energy = %10.6f' % (e_dim))
clean()
--------------------------------------------------------------------------

    Molecular point group: c1
  Charge       = 0
  Multiplicity = 1
  Basis Set: AUG-CC-PVDZ
    Blend: AUG-CC-PVDZ
  Basis Set: (AUG-CC-PVDZ AUX)
    Blend: AUG-CC-PVDZ-JKFIT
  @DF-RKS Final Energy:   -76.41950391817437
    Total Energy =                        -76.4195039181743709
    Molecular point group: c1
  Basis Set: AUG-CC-PVDZ
    Blend: AUG-CC-PVDZ
  Basis Set: (AUG-CC-PVDZ AUX)
    Blend: AUG-CC-PVDZ-JKFIT
  @DF-RKS Final Energy:   -76.41990586635373
    Total Energy =                        -76.4199058663537301
  Basis Set: AUG-CC-PVDZ
    Blend: AUG-CC-PVDZ
  Basis Set: (AUG-CC-PVDZ AUX)
    Blend: AUG-CC-PVDZ-JKFIT
  @DF-RKS Final Energy: -1188.20814225867002
    Total Energy =                      -1188.2081422586700228
  Multiplicity = 1
  Basis Set: AUG-CC-PVDZ
    Blend: AUG-CC-PVDZ
  Basis Set: (AUG-CC-PVDZ AUX)
    Blend: AUG-CC-PVDZ-JKFIT
  @DF-RKS Final Energy: -1188.20775642356330
    Total Energy =                      -1188.2077564235632963
    Molecular point group: c1

    Geometry (in Angstrom), charge = 0, multiplicity = 1:

       Center              X                  Y                   Z               Mass
    ------------   -----------------  -----------------  -----------------  -----------------
         N           -1.166514498561    -1.570069281142     0.141324917680    14.003074004430
         C           -2.455520498561    -1.263410281142     0.489362917680    12.000000000000
         C           -2.822247498561     0.257222718858     0.488902917680    12.000000000000
         F           -3.842172498561     0.435883718858    -0.418339082320    18.998403162730
         F           -3.300150498561     0.568329718858     1.742574917680    18.998403162730
         C           -1.680178498561     1.273963718858     0.138938917680    12.000000000000
         C           -0.350148498561     0.721505718858    -0.208207082320    12.000000000000
         C            0.711434501439     1.589905718858    -0.548782082320    12.000000000000
         C            1.973149501439     1.085321718858    -0.887366082320    12.000000000000
         C            2.202220501439    -0.316513281142    -0.909264082320    12.000000000000
         C            1.144791501439    -1.183244281142    -0.557063082320    12.000000000000
         C           -0.120949498561    -0.682356281142    -0.206618082320    12.000000000000
         S            3.725311501439    -1.088293281142    -1.388275082320    31.972071174400
         C            5.028339501439    -0.155258281142    -0.542184082320    12.000000000000
         O           -3.247197498561    -2.150437281142     0.773524917680    15.994914619570
         O           -1.896633498561     2.482152718858     0.153709917680    15.994914619570
         H            2.758299501439     1.789818718858    -1.159856082320     1.007825032230
         H            0.522499501439     2.663839718858    -0.546185082320     1.007825032230
         H           -0.994399498561    -2.566154281142     0.151644917680     1.007825032230
         H            1.306676501439    -2.262011281142    -0.578180082320     1.007825032230
         H            5.307145501439     0.708146718858    -1.153747082320     1.007825032230
         H            4.670209501439     0.183629718858     0.434709917680     1.007825032230
         H            5.898804501439    -0.803946281142    -0.405483082320     1.007825032230
         O            2.948655901439     0.921155518858     2.132065717680    15.994914619570
         H            2.316390901439     0.252100518858     2.395997717680     1.007825032230
         H            2.486981901439     1.758213518858     2.074391717680     1.007825032230

  Charge       = 0
  Multiplicity = 1
  Basis Set: AUG-CC-PVDZ
    Blend: AUG-CC-PVDZ
  Basis Set: (AUG-CC-PVDZ AUX)
    Blend: AUG-CC-PVDZ-JKFIT

    Orbital Energies [Eh]
    ---------------------

    Doubly Occupied:

       1A    -89.073988     2A    -24.873620     3A    -24.873212
       4A    -19.299545     5A    -19.293358     6A    -19.286777
       7A    -14.536075     8A    -10.508023     9A    -10.454376
      10A    -10.432971    11A    -10.406739    12A    -10.381686
      13A    -10.351616    14A    -10.350464    15A    -10.347382
      16A    -10.341222    17A    -10.339803    18A     -8.091327
      19A     -6.041108    20A     -6.036737    21A     -6.030554
      22A     -1.384636    23A     -1.328789    24A     -1.190452
      25A     -1.177915    26A     -1.136474    27A     -1.093315
      28A     -0.998655    29A     -0.936100    30A     -0.902083
      31A     -0.885984    32A     -0.865272    33A     -0.791731
      34A     -0.763724    35A     -0.750990    36A     -0.739724
      37A     -0.694247    38A     -0.678315    39A     -0.668712
      40A     -0.648920    41A     -0.642978    42A     -0.627281
      43A     -0.589038    44A     -0.578590    45A     -0.566969
      46A     -0.562874    47A     -0.555649    48A     -0.553409
      49A     -0.551144    50A     -0.535938    51A     -0.533866
      52A     -0.520912    53A     -0.517965    54A     -0.509619
      55A     -0.498364    56A     -0.495822    57A     -0.491392
      58A     -0.478484    59A     -0.473762    60A     -0.440697
      61A     -0.427414    62A     -0.413065    63A     -0.396557
      64A     -0.382884    65A     -0.369496    66A     -0.340656
      67A     -0.319029

  @DF-RKS Final Energy: -1264.63228927092496

   => Energetics <=

    Nuclear Repulsion Energy =           1327.5990160070150523
    One-Electron Energy =               -4374.1966746627422253
    Two-Electron Energy =                1878.0043851337100023
    DFT Exchange-Correlation Energy =     -96.0224745891819964
    Empirical Dispersion Energy =          -0.0165411597258823
    VV10 Nonlocal Energy =                  0.0000000000000000
    Total Energy =                      -1264.6322892709249572

  Dipole Moment: [D]
     X:     6.1281      Y:    -0.5967      Z:    -0.4562     Total:     6.1739

*** Psi4 exiting successfully. Buy a developer a beer!
