                               Psi4 1.3.2 release

  ==> Input File <==

--------------------------------------------------------------------------
molecule {
0 1
  N                 -0.9434020    -1.2946320    -0.0708730
  C                 -2.2086410    -1.0439180     0.3936770
  C                 -2.5064230     0.4442600     0.7696760
  F                 -3.7903720     0.7497380     0.3523190
  F                 -2.4836960     0.5330490     2.1429320
  C                 -1.5166830     1.5216170     0.2013870
  C                 -0.1964200     1.0409120    -0.2702800
  C                  0.7882390     1.9604880    -0.6925130
  C                  2.0449640     1.5210510    -1.1271190
  C                  2.3379690     0.1335820    -1.1724330
  C                  1.3372550    -0.7903110    -0.8016000
  C                  0.0734500    -0.3537710    -0.3679190
  S                  3.8924890    -0.5349890    -1.6856220
  C                  4.9258200    -0.3817870    -0.2070430
  O                 -3.0103620    -1.9559730     0.5455690
  O                 -1.8061590     2.7159920     0.2283820
  H                  2.7864760     2.2648640    -1.4172820
  H                  0.5494890     3.0238560    -0.6588960
  H                 -0.7909570    -2.2752920    -0.2609620
  H                  1.5516850    -1.8593380    -0.8390890
  H                  5.1500330     0.6747250    -0.0313260
  H                  4.3926260    -0.7947290     0.6550380
  H                  5.8560830    -0.9356900    -0.3635650
--
0 1
  O                 -2.7021233     0.4216635    -2.5561282
  H                 -3.6262773     0.4416775    -2.2966372
  H                 -2.5370823     1.1789895    -3.1197762
}
memory 16GB
set_num_threads(8)
psi4_io.set_default_path("/scratch/Psi4-ligand")
set maxiter 500
set freeze_core True
set PROPERTIES_ORIGIN ["COM"]
e_dim= energy('wb97x-d/aug-cc-pVDZ',bsse_type='cp')

psi4.print_out('CP Energy = %10.6f' % (e_dim))
clean()
--------------------------------------------------------------------------

    Molecular point group: c1
  Charge       = 0
  Multiplicity = 1
  Basis Set: AUG-CC-PVDZ
    Blend: AUG-CC-PVDZ
  Basis Set: (AUG-CC-PVDZ AUX)
    Blend: AUG-CC-PVDZ-JKFIT
  @DF-RKS Final Energy:   -76.41951278058340
    Total Energy =                        -76.4195127805834034
    Molecular point group: c1
  Basis Set: AUG-CC-PVDZ
    Blend: AUG-CC-PVDZ
  Basis Set: (AUG-CC-PVDZ AUX)
    Blend: AUG-CC-PVDZ-JKFIT
  @DF-RKS Final Energy:   -76.41985715375706
    Total Energy =                        -76.4198571537570359
  Basis Set: AUG-CC-PVDZ
    Blend: AUG-CC-PVDZ
  Basis Set: (AUG-CC-PVDZ AUX)
    Blend: AUG-CC-PVDZ-JKFIT
  @DF-RKS Final Energy: -1188.20565687625185
    Total Energy =                      -1188.2056568762518509
  Multiplicity = 1
  Basis Set: AUG-CC-PVDZ
    Blend: AUG-CC-PVDZ
  Basis Set: (AUG-CC-PVDZ AUX)
    Blend: AUG-CC-PVDZ-JKFIT
  @DF-RKS Final Energy: -1188.20527605326151
    Total Energy =                      -1188.2052760532615139
    Molecular point group: c1

    Geometry (in Angstrom), charge = 0, multiplicity = 1:

       Center              X                  Y                   Z               Mass
    ------------   -----------------  -----------------  -----------------  -----------------
         N           -0.737192851381    -1.518349258881     0.249679727692    14.003074004430
         C           -2.002431851381    -1.267635258881     0.714229727692    12.000000000000
         C           -2.300213851381     0.220542741119     1.090228727692    12.000000000000
         F           -3.584162851381     0.526020741119     0.672871727692    18.998403162730
         F           -2.277486851381     0.309331741119     2.463484727692    18.998403162730
         C           -1.310473851381     1.297899741119     0.521939727692    12.000000000000
         C            0.009789148619     0.817194741119     0.050272727692    12.000000000000
         C            0.994448148619     1.736770741119    -0.371960272308    12.000000000000
         C            2.251173148619     1.297333741119    -0.806566272308    12.000000000000
         C            2.544178148619    -0.090135258881    -0.851880272308    12.000000000000
         C            1.543464148619    -1.014028258881    -0.481047272308    12.000000000000
         C            0.279659148619    -0.577488258881    -0.047366272308    12.000000000000
         S            4.098698148619    -0.758706258881    -1.365069272308    31.972071174400
         C            5.132029148619    -0.605504258881     0.113509727692    12.000000000000
         O           -2.804152851381    -2.179690258881     0.866121727692    15.994914619570
         O           -1.599949851381     2.492274741119     0.548934727692    15.994914619570
         H            2.992685148619     2.041146741119    -1.096729272308     1.007825032230
         H            0.755698148619     2.800138741119    -0.338343272308     1.007825032230
         H           -0.584747851381    -2.499009258881     0.059590727692     1.007825032230
         H            1.757894148619    -2.083055258881    -0.518536272308     1.007825032230
         H            5.356242148619     0.451007741119     0.289226727692     1.007825032230
         H            4.598835148619    -1.018446258881     0.975590727692     1.007825032230
         H            6.062292148619    -1.159407258881    -0.043012272308     1.007825032230
         O           -2.495914151381     0.197946241119    -2.235575472308    15.994914619570
         H           -3.420068151381     0.217960241119    -1.976084472308     1.007825032230
         H           -2.330873151381     0.955272241119    -2.799223472308     1.007825032230

  Charge       = 0
  Multiplicity = 1
  Basis Set: AUG-CC-PVDZ
    Blend: AUG-CC-PVDZ
  Basis Set: (AUG-CC-PVDZ AUX)
    Blend: AUG-CC-PVDZ-JKFIT

    Orbital Energies [Eh]
    ---------------------

    Doubly Occupied:

       1A    -89.065343     2A    -24.875072     3A    -24.867234
       4A    -19.297635     5A    -19.289409     6A    -19.281490
       7A    -14.528450     8A    -10.504582     9A    -10.449138
      10A    -10.431150    11A    -10.400361    12A    -10.372716
      13A    -10.349650    14A    -10.345897    15A    -10.343602
      16A    -10.341698    17A    -10.338047    18A     -8.082838
      19A     -6.032700    20A     -6.028578    21A     -6.021631
      22A     -1.381660    23A     -1.324780    24A     -1.183582
      25A     -1.174167    26A     -1.130852    27A     -1.085810
      28A     -0.994033    29A     -0.932423    30A     -0.897563
      31A     -0.882162    32A     -0.861375    33A     -0.787519
      34A     -0.759166    35A     -0.745477    36A     -0.735122
      37A     -0.690372    38A     -0.672616    39A     -0.665247
      40A     -0.643403    41A     -0.636970    42A     -0.623071
      43A     -0.584715    44A     -0.574451    45A     -0.561875
      46A     -0.557574    47A     -0.551479    48A     -0.549979
      49A     -0.545804    50A     -0.534891    51A     -0.529950
      52A     -0.522972    53A     -0.515272    54A     -0.505884
      55A     -0.496241    56A     -0.491504    57A     -0.488988
      58A     -0.474559    59A     -0.468486    60A     -0.435179
      61A     -0.418468    62A     -0.414819    63A     -0.392177
      64A     -0.366208    65A     -0.361933    66A     -0.333555
      67A     -0.327366

  @DF-RKS Final Energy: -1264.63409052044085

   => Energetics <=

    Nuclear Repulsion Energy =           1339.8037574044853955
    One-Electron Energy =               -4399.2192278168267876
    Two-Electron Energy =                1890.8120390104347734
    DFT Exchange-Correlation Energy =     -96.0143225876095983
    Empirical Dispersion Energy =          -0.0163365309248718
    VV10 Nonlocal Energy =                  0.0000000000000000
    Total Energy =                      -1264.6340905204408500

  Dipole Moment: [D]
     X:     4.9297      Y:     0.0414      Z:    -1.6339     Total:     5.1936

*** Psi4 exiting successfully. Buy a developer a beer!
