                               Psi4 1.3.2 release

  ==> Input File <==

--------------------------------------------------------------------------
molecule {
0 1
  N                 -0.9676160    -1.4549240     0.2093220
  C                 -2.2516760    -1.1474040     0.5732680
  C                 -2.6107660     0.3750310     0.5977090
  F                 -3.6825620     0.5612650    -0.2465570
  F                 -3.0110640     0.6832050     1.8787410
  C                 -1.4864710     1.3888710     0.1866270
  C                 -0.1594330     0.8356860    -0.1693950
  C                  0.8949590     1.7010320    -0.5387870
  C                  2.1512030     1.1968010    -0.8958420
  C                  2.3936020    -0.2024380    -0.8646550
  C                  1.3398080    -1.0681870    -0.4980230
  C                  0.0735220    -0.5672840    -0.1515180
  S                  3.9172910    -0.9750520    -1.3417990
  C                  5.2135560    -0.0666170    -0.4589820
  O                 -3.0424390    -2.0342170     0.8612460
  O                 -1.7101850     2.5957460     0.1758760
  H                  2.9264970     1.8980460    -1.2020810
  H                  0.7003320     2.7739000    -0.5549490
  H                 -0.7969600    -2.4513040     0.2094560
  H                  1.5092480    -2.1455980    -0.4926220
  H                  5.4188490     0.8717440    -0.9825500
  H                  4.8876330     0.1426680     0.5640310
  H                  6.1202410    -0.6780710    -0.4326100
--
0 1
  O                  2.8263564    -0.0021804     1.3838154
  H                  2.4476274    -0.6688514     1.9575374
  H                  2.2233014     0.7418806     1.3516974
}
memory 16GB
set_num_threads(8)
psi4_io.set_default_path("/scratch/Psi4-ligand")
set maxiter 500
set freeze_core True
set PROPERTIES_ORIGIN ["COM"]
e_dim= energy('wb97x-d/aug-cc-pVDZ',bsse_type='cp')

psi4.print_out('CP Energy = %10.6f' % (e_dim))
clean()
--------------------------------------------------------------------------

    Molecular point group: c1
  Charge       = 0
  Multiplicity = 1
  Basis Set: AUG-CC-PVDZ
    Blend: AUG-CC-PVDZ
  Basis Set: (AUG-CC-PVDZ AUX)
    Blend: AUG-CC-PVDZ-JKFIT
  @DF-RKS Final Energy:   -76.41948057930118
    Total Energy =                        -76.4194805793011795
    Molecular point group: c1
  Basis Set: AUG-CC-PVDZ
    Blend: AUG-CC-PVDZ
  Basis Set: (AUG-CC-PVDZ AUX)
    Blend: AUG-CC-PVDZ-JKFIT
  @DF-RKS Final Energy:   -76.42042478577490
    Total Energy =                        -76.4204247857748840
  Basis Set: AUG-CC-PVDZ
    Blend: AUG-CC-PVDZ
  Basis Set: (AUG-CC-PVDZ AUX)
    Blend: AUG-CC-PVDZ-JKFIT
  @DF-RKS Final Energy: -1188.20869687100480
    Total Energy =                      -1188.2086968710050314
  Multiplicity = 1
  Basis Set: AUG-CC-PVDZ
    Blend: AUG-CC-PVDZ
  Basis Set: (AUG-CC-PVDZ AUX)
    Blend: AUG-CC-PVDZ-JKFIT
  @DF-RKS Final Energy: -1188.20778500885353
    Total Energy =                      -1188.2077850088535342
    Molecular point group: c1

    Geometry (in Angstrom), charge = 0, multiplicity = 1:

       Center              X                  Y                   Z               Mass
    ------------   -----------------  -----------------  -----------------  -----------------
         N           -1.144038577326    -1.496589908996     0.195727094781    14.003074004430
         C           -2.428098577326    -1.189069908996     0.559673094781    12.000000000000
         C           -2.787188577326     0.333365091004     0.584114094781    12.000000000000
         F           -3.858984577326     0.519599091004    -0.260151905219    18.998403162730
         F           -3.187486577326     0.641539091004     1.865146094781    18.998403162730
         C           -1.662893577326     1.347205091004     0.173032094781    12.000000000000
         C           -0.335855577326     0.794020091004    -0.182989905219    12.000000000000
         C            0.718536422674     1.659366091004    -0.552381905219    12.000000000000
         C            1.974780422674     1.155135091004    -0.909436905219    12.000000000000
         C            2.217179422674    -0.244103908996    -0.878249905219    12.000000000000
         C            1.163385422674    -1.109852908996    -0.511617905219    12.000000000000
         C           -0.102900577326    -0.608949908996    -0.165112905219    12.000000000000
         S            3.740868422674    -1.016717908996    -1.355393905219    31.972071174400
         C            5.037133422674    -0.108282908996    -0.472576905219    12.000000000000
         O           -3.218861577326    -2.075882908996     0.847651094781    15.994914619570
         O           -1.886607577326     2.554080091004     0.162281094781    15.994914619570
         H            2.750074422674     1.856380091004    -1.215675905219     1.007825032230
         H            0.523909422674     2.732234091004    -0.568543905219     1.007825032230
         H           -0.973382577326    -2.492969908996     0.195861094781     1.007825032230
         H            1.332825422674    -2.187263908996    -0.506216905219     1.007825032230
         H            5.242426422674     0.830078091004    -0.996144905219     1.007825032230
         H            4.711210422674     0.101002091004     0.550436094781     1.007825032230
         H            5.943818422674    -0.719736908996    -0.446204905219     1.007825032230
         O            2.649933822674    -0.043846308996     1.370220494781    15.994914619570
         H            2.271204822674    -0.710517308996     1.943942494781     1.007825032230
         H            2.046878822674     0.700214691004     1.338102494781     1.007825032230

  Charge       = 0
  Multiplicity = 1
  Basis Set: AUG-CC-PVDZ
    Blend: AUG-CC-PVDZ
  Basis Set: (AUG-CC-PVDZ AUX)
    Blend: AUG-CC-PVDZ-JKFIT

    Orbital Energies [Eh]
    ---------------------

    Doubly Occupied:

       1A    -89.071159     2A    -24.872534     3A    -24.871142
       4A    -19.296086     5A    -19.294977     6A    -19.285514
       7A    -14.534968     8A    -10.506300     9A    -10.453131
      10A    -10.430161    11A    -10.404140    12A    -10.384060
      13A    -10.350551    14A    -10.348539    15A    -10.341237
      16A    -10.337103    17A    -10.337041    18A     -8.088466
      19A     -6.038290    20A     -6.033909    21A     -6.027634
      22A     -1.383031    23A     -1.327227    24A     -1.189233
      25A     -1.174850    26A     -1.149461    27A     -1.091971
      28A     -0.997462    29A     -0.934417    30A     -0.900055
      31A     -0.885615    32A     -0.863750    33A     -0.790027
      34A     -0.762755    35A     -0.749762    36A     -0.738298
      37A     -0.693213    38A     -0.677100    39A     -0.667170
      40A     -0.660736    41A     -0.641632    42A     -0.625901
      43A     -0.586908    44A     -0.578191    45A     -0.566360
      46A     -0.562402    47A     -0.554038    48A     -0.552666
      49A     -0.551948    50A     -0.543075    51A     -0.533399
      52A     -0.520751    53A     -0.517670    54A     -0.510442
      55A     -0.499211    56A     -0.495376    57A     -0.489890
      58A     -0.477459    59A     -0.472321    60A     -0.448812
      61A     -0.418876    62A     -0.416266    63A     -0.394831
      64A     -0.367254    65A     -0.363340    66A     -0.339937
      67A     -0.316039

  @DF-RKS Final Energy: -1264.60706410648072

   => Energetics <=

    Nuclear Repulsion Energy =           1356.6768719816229805
    One-Electron Energy =               -4432.4190607656601060
    Two-Electron Energy =                1907.2146749861124135
    DFT Exchange-Correlation Energy =     -96.0617082784268632
    Empirical Dispersion Energy =          -0.0178420301287481
    VV10 Nonlocal Energy =                  0.0000000000000000
    Total Energy =                      -1264.6070641064804931

  Dipole Moment: [D]
     X:     6.6639      Y:    -1.1381      Z:     0.1239     Total:     6.7615

*** Psi4 exiting successfully. Buy a developer a beer!
