                               Psi4 1.3.2 release

  ==> Input File <==

--------------------------------------------------------------------------
molecule {
0 1
  N                 -0.8260030    -1.3282960    -0.0779940
  C                 -2.1092650    -1.0544570     0.3197650
  C                 -2.3948000     0.4430980     0.6653630
  F                 -3.6960120     0.7506790     0.3113310
  F                 -2.3114660     0.5636400     2.0338450
  C                 -1.4159460     1.4949620     0.0354070
  C                 -0.0748680     0.9990970    -0.3561590
  C                  0.9166740     1.8984060    -0.8047210
  C                  2.1915510     1.4433670    -1.1643410
  C                  2.4959700     0.0584930    -1.1092430
  C                  1.4871680    -0.8493330    -0.7206960
  C                  0.2051270    -0.3977250    -0.3635390
  S                  4.0705370    -0.6284060    -1.5292630
  C                  5.0499670    -0.3926990    -0.0252100
  O                 -2.9367190    -1.9487370     0.4345980
  O                 -1.7231300     2.6833150    -0.0299150
  H                  2.9370610     2.1736930    -1.4774200
  H                  0.6671740     2.9585660    -0.8554840
  H                 -0.6730600    -2.3132220    -0.2442190
  H                  1.7086540    -1.9167780    -0.6859390
  H                  5.1799690     0.6784470     0.1577010
  H                  4.5314840    -0.8522290     0.8222450
  H                  6.0275000    -0.8654740    -0.1593070
--
0 1
  O                 -2.7216694     0.2177139    -2.6059087
  H                 -3.5538524     0.0321919    -2.1653077
  H                 -2.8249224     1.0296739    -3.1052307
}
memory 16GB
set_num_threads(8)
psi4_io.set_default_path("/scratch/Psi4-ligand")
set maxiter 500
set freeze_core True
set PROPERTIES_ORIGIN ["COM"]
e_dim= energy('wb97x-d/aug-cc-pVDZ',bsse_type='cp')

psi4.print_out('CP Energy = %10.6f' % (e_dim))
clean()
--------------------------------------------------------------------------

    Molecular point group: c1
  Charge       = 0
  Multiplicity = 1
  Basis Set: AUG-CC-PVDZ
    Blend: AUG-CC-PVDZ
  Basis Set: (AUG-CC-PVDZ AUX)
    Blend: AUG-CC-PVDZ-JKFIT
  @DF-RKS Final Energy:   -76.41950352894962
    Total Energy =                        -76.4195035289496047
    Molecular point group: c1
  Basis Set: AUG-CC-PVDZ
    Blend: AUG-CC-PVDZ
  Basis Set: (AUG-CC-PVDZ AUX)
    Blend: AUG-CC-PVDZ-JKFIT
  @DF-RKS Final Energy:   -76.41988207980182
    Total Energy =                        -76.4198820798018090
  Basis Set: AUG-CC-PVDZ
    Blend: AUG-CC-PVDZ
  Basis Set: (AUG-CC-PVDZ AUX)
    Blend: AUG-CC-PVDZ-JKFIT
  @DF-RKS Final Energy: -1188.20573840117891
    Total Energy =                      -1188.2057384011789054
  Multiplicity = 1
  Basis Set: AUG-CC-PVDZ
    Blend: AUG-CC-PVDZ
  Basis Set: (AUG-CC-PVDZ AUX)
    Blend: AUG-CC-PVDZ-JKFIT
  @DF-RKS Final Energy: -1188.20532384668218
    Total Energy =                      -1188.2053238466819494
    Molecular point group: c1

    Geometry (in Angstrom), charge = 0, multiplicity = 1:

       Center              X                  Y                   Z               Mass
    ------------   -----------------  -----------------  -----------------  -----------------
         N           -0.736763865403    -1.505138678823     0.269454504865    14.003074004430
         C           -2.020025865403    -1.231299678823     0.667213504865    12.000000000000
         C           -2.305560865403     0.266255321177     1.012811504865    12.000000000000
         F           -3.606772865403     0.573836321177     0.658779504865    18.998403162730
         F           -2.222226865403     0.386797321177     2.381293504865    18.998403162730
         C           -1.326706865403     1.318119321177     0.382855504865    12.000000000000
         C            0.014371134597     0.822254321177    -0.008710495135    12.000000000000
         C            1.005913134597     1.721563321177    -0.457272495135    12.000000000000
         C            2.280790134597     1.266524321177    -0.816892495135    12.000000000000
         C            2.585209134597    -0.118349678823    -0.761794495135    12.000000000000
         C            1.576407134597    -1.026175678823    -0.373247495135    12.000000000000
         C            0.294366134597    -0.574567678823    -0.016090495135    12.000000000000
         S            4.159776134597    -0.805248678823    -1.181814495135    31.972071174400
         C            5.139206134597    -0.569541678823     0.322238504865    12.000000000000
         O           -2.847479865403    -2.125579678823     0.782046504865    15.994914619570
         O           -1.633890865403     2.506472321177     0.317533504865    15.994914619570
         H            3.026300134597     1.996850321177    -1.129971495135     1.007825032230
         H            0.756413134597     2.781723321177    -0.508035495135     1.007825032230
         H           -0.583820865403    -2.490064678823     0.103229504865     1.007825032230
         H            1.797893134597    -2.093620678823    -0.338490495135     1.007825032230
         H            5.269208134597     0.501604321177     0.505149504865     1.007825032230
         H            4.620723134597    -1.029071678823     1.169693504865     1.007825032230
         H            6.116739134597    -1.042316678823     0.188141504865     1.007825032230
         O           -2.632430265403     0.040871221177    -2.258460195135    15.994914619570
         H           -3.464613265403    -0.144650778823    -1.817859195135     1.007825032230
         H           -2.735683265403     0.852831221177    -2.757782195135     1.007825032230

  Charge       = 0
  Multiplicity = 1
  Basis Set: AUG-CC-PVDZ
    Blend: AUG-CC-PVDZ
  Basis Set: (AUG-CC-PVDZ AUX)
    Blend: AUG-CC-PVDZ-JKFIT

    Orbital Energies [Eh]
    ---------------------

    Doubly Occupied:

       1A    -89.065505     2A    -24.876949     3A    -24.869181
       4A    -19.298838     5A    -19.287777     6A    -19.284248
       7A    -14.530093     8A    -10.505919     9A    -10.451467
      10A    -10.432303    11A    -10.401154    12A    -10.373120
      13A    -10.350514    14A    -10.346415    15A    -10.344106
      16A    -10.341910    17A    -10.338477    18A     -8.082988
      19A     -6.032854    20A     -6.028732    21A     -6.021776
      22A     -1.384247    23A     -1.326409    24A     -1.185982
      25A     -1.175192    26A     -1.129240    27A     -1.087477
      28A     -0.994578    29A     -0.932981    30A     -0.898911
      31A     -0.882898    32A     -0.862252    33A     -0.788093
      34A     -0.760191    35A     -0.746822    36A     -0.735814
      37A     -0.691889    38A     -0.673357    39A     -0.667032
      40A     -0.642561    41A     -0.637699    42A     -0.624453
      43A     -0.585748    44A     -0.575500    45A     -0.564339
      46A     -0.558647    47A     -0.552510    48A     -0.550854
      49A     -0.546221    50A     -0.536599    51A     -0.530043
      52A     -0.523641    53A     -0.516831    54A     -0.507617
      55A     -0.497464    56A     -0.491089    57A     -0.488122
      58A     -0.475916    59A     -0.469303    60A     -0.436129
      61A     -0.417115    62A     -0.415418    63A     -0.394229
      64A     -0.367632    65A     -0.362269    66A     -0.334515
      67A     -0.327743

  @DF-RKS Final Energy: -1264.63445052607017

   => Energetics <=

    Nuclear Repulsion Energy =           1339.6547949334067198
    One-Electron Energy =               -4398.8038859456282808
    Two-Electron Energy =                1890.5454601516262301
    DFT Exchange-Correlation Energy =     -96.0143819363969016
    Empirical Dispersion Energy =          -0.0164377290779631
    VV10 Nonlocal Energy =                  0.0000000000000000
    Total Energy =                      -1264.6344505260701681

  Dipole Moment: [D]
     X:     4.7804      Y:    -0.1758      Z:    -0.9807     Total:     4.8831

*** Psi4 exiting successfully. Buy a developer a beer!
