                               Psi4 1.3.2 release

  ==> Input File <==

--------------------------------------------------------------------------
molecule {
0 1
  N                 -0.8387180    -1.4162130     0.0458400
  C                 -2.1154550    -1.1700410     0.4831380
  C                 -2.4438040     0.3309240     0.7680960
  F                 -3.7510470     0.5799800     0.4010040
  F                 -2.3528700     0.5214280     2.1279610
  C                 -1.5104670     1.3861230     0.0760970
  C                 -0.1641870     0.9190250    -0.3322220
  C                  0.7846930     1.8303990    -0.8440260
  C                  2.0635470     1.4015020    -1.2209700
  C                  2.4102440     0.0286610    -1.1285480
  C                  1.4388530    -0.8945880    -0.6844750
  C                  0.1548630    -0.4682690    -0.3040470
  S                  3.9942670    -0.6248470    -1.5665020
  C                  5.0031730    -0.3146060    -0.0954460
  O                 -2.8881790    -2.0925920     0.7016620
  O                 -1.8618720     2.5594270    -0.0437570
  H                  2.7790970     2.1421990    -1.5770730
  H                  0.5013350     2.8801220    -0.9241300
  H                 -0.6568400    -2.4034510    -0.0704010
  H                  1.6931890    -1.9532600    -0.6192490
  H                  5.0586660     0.7629650     0.0871740
  H                  4.5495160    -0.8123620     0.7672370
  H                  6.0085440    -0.7123100    -0.2628960
--
0 1
  O                 -2.3820759     0.5131305    -2.1758432
  H                 -2.7448449     1.3698645    -1.9403872
  H                 -1.7949369     0.6322575    -2.9237162
}
memory 16GB
set_num_threads(8)
psi4_io.set_default_path("/scratch/Psi4-ligand")
set maxiter 500
set freeze_core True
set PROPERTIES_ORIGIN ["COM"]
e_dim= energy('wb97x-d/aug-cc-pVDZ',bsse_type='cp')

psi4.print_out('CP Energy = %10.6f' % (e_dim))
clean()
--------------------------------------------------------------------------

    Molecular point group: c1
  Charge       = 0
  Multiplicity = 1
  Basis Set: AUG-CC-PVDZ
    Blend: AUG-CC-PVDZ
  Basis Set: (AUG-CC-PVDZ AUX)
    Blend: AUG-CC-PVDZ-JKFIT
  @DF-RKS Final Energy:   -76.41947838405632
    Total Energy =                        -76.4194783840563332
    Molecular point group: c1
  Basis Set: AUG-CC-PVDZ
    Blend: AUG-CC-PVDZ
  Basis Set: (AUG-CC-PVDZ AUX)
    Blend: AUG-CC-PVDZ-JKFIT
  @DF-RKS Final Energy:   -76.42017213747266
    Total Energy =                        -76.4201721374726759
  Basis Set: AUG-CC-PVDZ
    Blend: AUG-CC-PVDZ
  Basis Set: (AUG-CC-PVDZ AUX)
    Blend: AUG-CC-PVDZ-JKFIT
  @DF-RKS Final Energy: -1188.20595778894540
    Total Energy =                      -1188.2059577889453976
  Multiplicity = 1
  Basis Set: AUG-CC-PVDZ
    Blend: AUG-CC-PVDZ
  Basis Set: (AUG-CC-PVDZ AUX)
    Blend: AUG-CC-PVDZ-JKFIT
  @DF-RKS Final Energy: -1188.20525077153206
    Total Energy =                      -1188.2052507715320644
    Molecular point group: c1

    Geometry (in Angstrom), charge = 0, multiplicity = 1:

       Center              X                  Y                   Z               Mass
    ------------   -----------------  -----------------  -----------------  -----------------
         N           -0.719533539033    -1.551451702974     0.323918717134    14.003074004430
         C           -1.996270539033    -1.305279702974     0.761216717134    12.000000000000
         C           -2.324619539033     0.195685297026     1.046174717134    12.000000000000
         F           -3.631862539033     0.444741297026     0.679082717134    18.998403162730
         F           -2.233685539033     0.386189297026     2.406039717134    18.998403162730
         C           -1.391282539033     1.250884297026     0.354175717134    12.000000000000
         C           -0.045002539033     0.783786297026    -0.054143282866    12.000000000000
         C            0.903877460967     1.695160297026    -0.565947282866    12.000000000000
         C            2.182731460967     1.266263297026    -0.942891282866    12.000000000000
         C            2.529428460967    -0.106577702974    -0.850469282866    12.000000000000
         C            1.558037460967    -1.029826702974    -0.406396282866    12.000000000000
         C            0.274047460967    -0.603507702974    -0.025968282866    12.000000000000
         S            4.113451460967    -0.760085702974    -1.288423282866    31.972071174400
         C            5.122357460967    -0.449844702974     0.182632717134    12.000000000000
         O           -2.768994539033    -2.227830702974     0.979740717134    15.994914619570
         O           -1.742687539033     2.424188297026     0.234321717134    15.994914619570
         H            2.898281460967     2.006960297026    -1.298994282866     1.007825032230
         H            0.620519460967     2.744883297026    -0.646051282866     1.007825032230
         H           -0.537655539033    -2.538689702974     0.207677717134     1.007825032230
         H            1.812373460967    -2.088498702974    -0.341170282866     1.007825032230
         H            5.177850460967     0.627726297026     0.365252717134     1.007825032230
         H            4.668700460967    -0.947600702974     1.045315717134     1.007825032230
         H            6.127728460967    -0.847548702974     0.015182717134     1.007825032230
         O           -2.262891439033     0.377891797026    -1.897764482866    15.994914619570
         H           -2.625660439033     1.234625797026    -1.662308482866     1.007825032230
         H           -1.675752439033     0.497018797026    -2.645637482866     1.007825032230

  Charge       = 0
  Multiplicity = 1
  Basis Set: AUG-CC-PVDZ
    Blend: AUG-CC-PVDZ
  Basis Set: (AUG-CC-PVDZ AUX)
    Blend: AUG-CC-PVDZ-JKFIT

    Orbital Energies [Eh]
    ---------------------

    Doubly Occupied:

       1A    -89.067035     2A    -24.874994     3A    -24.864143
       4A    -19.299766     5A    -19.296304     6A    -19.280183
       7A    -14.528315     8A    -10.503521     9A    -10.448142
      10A    -10.435802    11A    -10.401267    12A    -10.374198
      13A    -10.351519    14A    -10.347751    15A    -10.345594
      16A    -10.343166    17A    -10.340380    18A     -8.084500
      19A     -6.034364    20A     -6.030245    21A     -6.023295
      22A     -1.381270    23A     -1.323314    24A     -1.182645
      25A     -1.178657    26A     -1.140137    27A     -1.085813
      28A     -0.995821    29A     -0.934194    30A     -0.898630
      31A     -0.883948    32A     -0.862280    33A     -0.788768
      34A     -0.760191    35A     -0.746572    36A     -0.736380
      37A     -0.691712    38A     -0.674023    39A     -0.666105
      40A     -0.652088    41A     -0.637535    42A     -0.623925
      43A     -0.587088    44A     -0.576811    45A     -0.562356
      46A     -0.557818    47A     -0.553522    48A     -0.552213
      49A     -0.545575    50A     -0.535261    51A     -0.531160
      52A     -0.523650    53A     -0.513973    54A     -0.510384
      55A     -0.498825    56A     -0.495723    57A     -0.491813
      58A     -0.476553    59A     -0.470063    60A     -0.436754
      61A     -0.422630    62A     -0.416479    63A     -0.392447
      64A     -0.367697    65A     -0.363086    66A     -0.334874
      67A     -0.328777

  @DF-RKS Final Energy: -1264.63152236335486

   => Energetics <=

    Nuclear Repulsion Energy =           1356.2546529566307072
    One-Electron Energy =               -4431.8931328895905608
    Two-Electron Energy =                1907.0550401052230427
    DFT Exchange-Correlation Energy =     -96.0308740651108508
    Empirical Dispersion Energy =          -0.0172084705073472
    VV10 Nonlocal Energy =                  0.0000000000000000
    Total Energy =                      -1264.6315223633548612

  Dipole Moment: [D]
     X:     6.2640      Y:     0.3046      Z:    -1.8117     Total:     6.5278

*** Psi4 exiting successfully. Buy a developer a beer!
