                               Psi4 1.3.2 release

  ==> Input File <==

--------------------------------------------------------------------------
molecule {
0 1
  N                 -0.9434020    -1.2946320    -0.0708730
  C                 -2.2086410    -1.0439180     0.3936770
  C                 -2.5064230     0.4442600     0.7696760
  F                 -3.7903720     0.7497380     0.3523190
  F                 -2.4836960     0.5330490     2.1429320
  C                 -1.5166830     1.5216170     0.2013870
  C                 -0.1964200     1.0409120    -0.2702800
  C                  0.7882390     1.9604880    -0.6925130
  C                  2.0449640     1.5210510    -1.1271190
  C                  2.3379690     0.1335820    -1.1724330
  C                  1.3372550    -0.7903110    -0.8016000
  C                  0.0734500    -0.3537710    -0.3679190
  S                  3.8924890    -0.5349890    -1.6856220
  C                  4.9258200    -0.3817870    -0.2070430
  O                 -3.0103620    -1.9559730     0.5455690
  O                 -1.8061590     2.7159920     0.2283820
  H                  2.7864760     2.2648640    -1.4172820
  H                  0.5494890     3.0238560    -0.6588960
  H                 -0.7909570    -2.2752920    -0.2609620
  H                  1.5516850    -1.8593380    -0.8390890
  H                  5.1500330     0.6747250    -0.0313260
  H                  4.3926260    -0.7947290     0.6550380
  H                  5.8560830    -0.9356900    -0.3635650
--
0 1
  O                 -2.7468764     0.5056800    -1.8336856
  H                 -3.6710304     0.5256940    -1.5741946
  H                 -2.5818354     1.2630060    -2.3973336
}
memory 16GB
set_num_threads(8)
psi4_io.set_default_path("/scratch/Psi4-ligand")
set maxiter 500
set freeze_core True
set PROPERTIES_ORIGIN ["COM"]
e_dim= energy('wb97x-d/aug-cc-pVDZ',bsse_type='cp')

psi4.print_out('CP Energy = %10.6f' % (e_dim))
clean()
--------------------------------------------------------------------------

    Molecular point group: c1
  Charge       = 0
  Multiplicity = 1
  Basis Set: AUG-CC-PVDZ
    Blend: AUG-CC-PVDZ
  Basis Set: (AUG-CC-PVDZ AUX)
    Blend: AUG-CC-PVDZ-JKFIT
  @DF-RKS Final Energy:   -76.41951278064572
    Total Energy =                        -76.4195127806457180
    Molecular point group: c1
  Basis Set: AUG-CC-PVDZ
    Blend: AUG-CC-PVDZ
  Basis Set: (AUG-CC-PVDZ AUX)
    Blend: AUG-CC-PVDZ-JKFIT
  @DF-RKS Final Energy:   -76.42034835248381
    Total Energy =                        -76.4203483524838134
  Basis Set: AUG-CC-PVDZ
    Blend: AUG-CC-PVDZ
  Basis Set: (AUG-CC-PVDZ AUX)
    Blend: AUG-CC-PVDZ-JKFIT
  @DF-RKS Final Energy: -1188.20620432680221
    Total Energy =                      -1188.2062043268022080
  Multiplicity = 1
  Basis Set: AUG-CC-PVDZ
    Blend: AUG-CC-PVDZ
  Basis Set: (AUG-CC-PVDZ AUX)
    Blend: AUG-CC-PVDZ-JKFIT
  @DF-RKS Final Energy: -1188.20528033275764
    Total Energy =                      -1188.2052803327576385
    Molecular point group: c1

    Geometry (in Angstrom), charge = 0, multiplicity = 1:

       Center              X                  Y                   Z               Mass
    ------------   -----------------  -----------------  -----------------  -----------------
         N           -0.734104940054    -1.524146298683     0.199832036980    14.003074004430
         C           -1.999343940054    -1.273432298683     0.664382036980    12.000000000000
         C           -2.297125940054     0.214745701317     1.040381036980    12.000000000000
         F           -3.581074940054     0.520223701317     0.623024036980    18.998403162730
         F           -2.274398940054     0.303534701317     2.413637036980    18.998403162730
         C           -1.307385940054     1.292102701317     0.472092036980    12.000000000000
         C            0.012877059946     0.811397701317     0.000425036980    12.000000000000
         C            0.997536059946     1.730973701317    -0.421807963020    12.000000000000
         C            2.254261059946     1.291536701317    -0.856413963020    12.000000000000
         C            2.547266059946    -0.095932298683    -0.901727963020    12.000000000000
         C            1.546552059946    -1.019825298683    -0.530894963020    12.000000000000
         C            0.282747059946    -0.583285298683    -0.097213963020    12.000000000000
         S            4.101786059946    -0.764503298683    -1.414916963020    31.972071174400
         C            5.135117059946    -0.611301298683     0.063662036980    12.000000000000
         O           -2.801064940054    -2.185487298683     0.816274036980    15.994914619570
         O           -1.596861940054     2.486477701317     0.499087036980    15.994914619570
         H            2.995773059946     2.035349701317    -1.146576963020     1.007825032230
         H            0.758786059946     2.794341701317    -0.388190963020     1.007825032230
         H           -0.581659940054    -2.504806298683     0.009743036980     1.007825032230
         H            1.760982059946    -2.088852298683    -0.568383963020     1.007825032230
         H            5.359330059946     0.445210701317     0.239379036980     1.007825032230
         H            4.601923059946    -1.024243298683     0.925743036980     1.007825032230
         H            6.065380059946    -1.165204298683    -0.092859963020     1.007825032230
         O           -2.537579340054     0.276165701317    -1.562980563020    15.994914619570
         H           -3.461733340054     0.296179701317    -1.303489563020     1.007825032230
         H           -2.372538340054     1.033491701317    -2.126628563020     1.007825032230

  Charge       = 0
  Multiplicity = 1
  Basis Set: AUG-CC-PVDZ
    Blend: AUG-CC-PVDZ
  Basis Set: (AUG-CC-PVDZ AUX)
    Blend: AUG-CC-PVDZ-JKFIT

    Orbital Energies [Eh]
    ---------------------

    Doubly Occupied:

       1A    -89.064371     2A    -24.873494     3A    -24.869089
       4A    -19.294452     5A    -19.292619     6A    -19.279494
       7A    -14.525690     8A    -10.503016     9A    -10.447531
      10A    -10.430120    11A    -10.398315    12A    -10.371092
      13A    -10.347998    14A    -10.344390    15A    -10.342383
      16A    -10.340817    17A    -10.336890    18A     -8.081861
      19A     -6.031721    20A     -6.027601    21A     -6.020663
      22A     -1.382850    23A     -1.327338    24A     -1.181800
      25A     -1.171360    26A     -1.140837    27A     -1.083433
      28A     -0.992606    29A     -0.931059    30A     -0.896105
      31A     -0.880722    32A     -0.860411    33A     -0.786669
      34A     -0.757563    35A     -0.744074    36A     -0.734385
      37A     -0.692250    38A     -0.672127    39A     -0.668198
      40A     -0.656925    41A     -0.634409    42A     -0.619482
      43A     -0.582844    44A     -0.573048    45A     -0.562792
      46A     -0.556500    47A     -0.551759    48A     -0.549727
      49A     -0.545355    50A     -0.534987    51A     -0.529208
      52A     -0.522644    53A     -0.519173    54A     -0.504888
      55A     -0.498937    56A     -0.495367    57A     -0.487671
      58A     -0.473540    59A     -0.467463    60A     -0.433815
      61A     -0.420653    62A     -0.413432    63A     -0.390230
      64A     -0.363981    65A     -0.360724    66A     -0.332180
      67A     -0.326236

  @DF-RKS Final Energy: -1264.63012080151270

   => Energetics <=

    Nuclear Repulsion Energy =           1360.5250171599370788
    One-Electron Energy =               -4440.6810722659856765
    Two-Electron Energy =                1911.5858181450616939
    DFT Exchange-Correlation Energy =     -96.0428711808706339
    Empirical Dispersion Energy =          -0.0170126596554986
    VV10 Nonlocal Energy =                  0.0000000000000000
    Total Energy =                      -1264.6301208015127031

  Dipole Moment: [D]
     X:     4.6514      Y:     0.0003      Z:    -1.7071     Total:     4.9548

*** Psi4 exiting successfully. Buy a developer a beer!
