                               Psi4 1.3.2 release

  ==> Input File <==

--------------------------------------------------------------------------
molecule {
0 1
  N                 -0.9676160    -1.4549240     0.2093220
  C                 -2.2516760    -1.1474040     0.5732680
  C                 -2.6107660     0.3750310     0.5977090
  F                 -3.6825620     0.5612650    -0.2465570
  F                 -3.0110640     0.6832050     1.8787410
  C                 -1.4864710     1.3888710     0.1866270
  C                 -0.1594330     0.8356860    -0.1693950
  C                  0.8949590     1.7010320    -0.5387870
  C                  2.1512030     1.1968010    -0.8958420
  C                  2.3936020    -0.2024380    -0.8646550
  C                  1.3398080    -1.0681870    -0.4980230
  C                  0.0735220    -0.5672840    -0.1515180
  S                  3.9172910    -0.9750520    -1.3417990
  C                  5.2135560    -0.0666170    -0.4589820
  O                 -3.0424390    -2.0342170     0.8612460
  O                 -1.7101850     2.5957460     0.1758760
  H                  2.9264970     1.8980460    -1.2020810
  H                  0.7003320     2.7739000    -0.5549490
  H                 -0.7969600    -2.4513040     0.2094560
  H                  1.5092480    -2.1455980    -0.4926220
  H                  5.4188490     0.8717440    -0.9825500
  H                  4.8876330     0.1426680     0.5640310
  H                  6.1202410    -0.6780710    -0.4326100
--
0 1
  O                  2.8804507     0.0228518     1.6648742
  H                  2.5017217    -0.6438192     2.2385962
  H                  2.2773957     0.7669128     1.6327562
}
memory 16GB
set_num_threads(8)
psi4_io.set_default_path("/scratch/Psi4-ligand")
set maxiter 500
set freeze_core True
set PROPERTIES_ORIGIN ["COM"]
e_dim= energy('wb97x-d/aug-cc-pVDZ',bsse_type='cp')

psi4.print_out('CP Energy = %10.6f' % (e_dim))
clean()
--------------------------------------------------------------------------

    Molecular point group: c1
  Charge       = 0
  Multiplicity = 1
  Basis Set: AUG-CC-PVDZ
    Blend: AUG-CC-PVDZ
  Basis Set: (AUG-CC-PVDZ AUX)
    Blend: AUG-CC-PVDZ-JKFIT
  @DF-RKS Final Energy:   -76.41948057936790
    Total Energy =                        -76.4194805793678995
    Molecular point group: c1
  Basis Set: AUG-CC-PVDZ
    Blend: AUG-CC-PVDZ
  Basis Set: (AUG-CC-PVDZ AUX)
    Blend: AUG-CC-PVDZ-JKFIT
  @DF-RKS Final Energy:   -76.42017733601881
    Total Energy =                        -76.4201773360187957
  Basis Set: AUG-CC-PVDZ
    Blend: AUG-CC-PVDZ
  Basis Set: (AUG-CC-PVDZ AUX)
    Blend: AUG-CC-PVDZ-JKFIT
  @DF-RKS Final Energy: -1188.20850418832788
    Total Energy =                      -1188.2085041883278791
  Multiplicity = 1
  Basis Set: AUG-CC-PVDZ
    Blend: AUG-CC-PVDZ
  Basis Set: (AUG-CC-PVDZ AUX)
    Blend: AUG-CC-PVDZ-JKFIT
  @DF-RKS Final Energy: -1188.20778256018525
    Total Energy =                      -1188.2077825601850236
    Molecular point group: c1

    Geometry (in Angstrom), charge = 0, multiplicity = 1:

       Center              X                  Y                   Z               Mass
    ------------   -----------------  -----------------  -----------------  -----------------
         N           -1.147771020479    -1.498317101390     0.176334367755    14.003074004430
         C           -2.431831020479    -1.190797101390     0.540280367755    12.000000000000
         C           -2.790921020479     0.331637898610     0.564721367755    12.000000000000
         F           -3.862717020479     0.517871898610    -0.279544632245    18.998403162730
         F           -3.191219020479     0.639811898610     1.845753367755    18.998403162730
         C           -1.666626020479     1.345477898610     0.153639367755    12.000000000000
         C           -0.339588020479     0.792292898610    -0.202382632245    12.000000000000
         C            0.714803979521     1.657638898610    -0.571774632245    12.000000000000
         C            1.971047979521     1.153407898610    -0.928829632245    12.000000000000
         C            2.213446979521    -0.245831101390    -0.897642632245    12.000000000000
         C            1.159652979521    -1.111580101390    -0.531010632245    12.000000000000
         C           -0.106633020479    -0.610677101390    -0.184505632245    12.000000000000
         S            3.737135979521    -1.018445101390    -1.374786632245    31.972071174400
         C            5.033400979521    -0.110010101390    -0.491969632245    12.000000000000
         O           -3.222594020479    -2.077610101390     0.828258367755    15.994914619570
         O           -1.890340020479     2.552352898610     0.142888367755    15.994914619570
         H            2.746341979521     1.854652898610    -1.235068632245     1.007825032230
         H            0.520176979521     2.730506898610    -0.587936632245     1.007825032230
         H           -0.977115020479    -2.494697101390     0.176468367755     1.007825032230
         H            1.329092979521    -2.188991101390    -0.525609632245     1.007825032230
         H            5.238693979521     0.828350898610    -1.015537632245     1.007825032230
         H            4.707477979521     0.099274898610     0.531043367755     1.007825032230
         H            5.940085979521    -0.721464101390    -0.465597632245     1.007825032230
         O            2.700295679521    -0.020541301390     1.631886567755    15.994914619570
         H            2.321566679521    -0.687212301390     2.205608567755     1.007825032230
         H            2.097240679521     0.723519698610     1.599768567755     1.007825032230

  Charge       = 0
  Multiplicity = 1
  Basis Set: AUG-CC-PVDZ
    Blend: AUG-CC-PVDZ
  Basis Set: (AUG-CC-PVDZ AUX)
    Blend: AUG-CC-PVDZ-JKFIT

    Orbital Energies [Eh]
    ---------------------

    Doubly Occupied:

       1A    -89.070558     2A    -24.873334     3A    -24.871937
       4A    -19.297773     5A    -19.294211     6A    -19.286050
       7A    -14.535364     8A    -10.507144     9A    -10.453665
      10A    -10.431484    11A    -10.404717    12A    -10.380639
      13A    -10.350471    14A    -10.349905    15A    -10.343126
      16A    -10.338679    17A    -10.336594    18A     -8.087824
      19A     -6.037631    20A     -6.033277    21A     -6.027006
      22A     -1.383824    23A     -1.328016    24A     -1.189734
      25A     -1.176300    26A     -1.141762    27A     -1.092457
      28A     -0.997104    29A     -0.933926    30A     -0.900249
      31A     -0.885189    32A     -0.863387    33A     -0.789775
      34A     -0.762622    35A     -0.749986    36A     -0.737870
      37A     -0.693194    38A     -0.677169    39A     -0.667938
      40A     -0.654567    41A     -0.641564    42A     -0.626216
      43A     -0.587383    44A     -0.577323    45A     -0.566450
      46A     -0.562131    47A     -0.553856    48A     -0.552472
      49A     -0.550670    50A     -0.539511    51A     -0.533654
      52A     -0.519883    53A     -0.517730    54A     -0.509340
      55A     -0.497611    56A     -0.493445    57A     -0.490211
      58A     -0.476925    59A     -0.472515    60A     -0.444782
      61A     -0.418925    62A     -0.417675    63A     -0.395569
      64A     -0.371706    65A     -0.368233    66A     -0.339991
      67A     -0.316976

  @DF-RKS Final Energy: -1264.62427565198300

   => Energetics <=

    Nuclear Repulsion Energy =           1347.6153705651463497
    One-Electron Energy =               -4414.3620883209596286
    Two-Electron Energy =                1898.1808913980542002
    DFT Exchange-Correlation Energy =     -96.0407976183908971
    Empirical Dispersion Energy =          -0.0176516758332044
    VV10 Nonlocal Energy =                  0.0000000000000000
    Total Energy =                      -1264.6242756519829982

  Dipole Moment: [D]
     X:     6.4077      Y:    -1.0492      Z:     0.0929     Total:     6.4937

*** Psi4 exiting successfully. Buy a developer a beer!
