                               Psi4 1.3.2 release

  ==> Input File <==

--------------------------------------------------------------------------
molecule {
0 1
  N                 -0.8387180    -1.4162130     0.0458400
  C                 -2.1154550    -1.1700410     0.4831380
  C                 -2.4438040     0.3309240     0.7680960
  F                 -3.7510470     0.5799800     0.4010040
  F                 -2.3528700     0.5214280     2.1279610
  C                 -1.5104670     1.3861230     0.0760970
  C                 -0.1641870     0.9190250    -0.3322220
  C                  0.7846930     1.8303990    -0.8440260
  C                  2.0635470     1.4015020    -1.2209700
  C                  2.4102440     0.0286610    -1.1285480
  C                  1.4388530    -0.8945880    -0.6844750
  C                  0.1548630    -0.4682690    -0.3040470
  S                  3.9942670    -0.6248470    -1.5665020
  C                  5.0031730    -0.3146060    -0.0954460
  O                 -2.8881790    -2.0925920     0.7016620
  O                 -1.8618720     2.5594270    -0.0437570
  H                  2.7790970     2.1421990    -1.5770730
  H                  0.5013350     2.8801220    -0.9241300
  H                 -0.6568400    -2.4034510    -0.0704010
  H                  1.6931890    -1.9532600    -0.6192490
  H                  5.0586660     0.7629650     0.0871740
  H                  4.5495160    -0.8123620     0.7672370
  H                  6.0085440    -0.7123100    -0.2628960
--
0 1
  O                 -2.2449228     0.5149370    -1.9517894
  H                 -2.6076918     1.3716710    -1.7163334
  H                 -1.6577838     0.6340640    -2.6996624
}
memory 16GB
set_num_threads(8)
psi4_io.set_default_path("/scratch/Psi4-ligand")
set maxiter 500
set freeze_core True
set PROPERTIES_ORIGIN ["COM"]
e_dim= energy('wb97x-d/aug-cc-pVDZ',bsse_type='cp')

psi4.print_out('CP Energy = %10.6f' % (e_dim))
clean()
--------------------------------------------------------------------------

    Molecular point group: c1
  Charge       = 0
  Multiplicity = 1
  Basis Set: AUG-CC-PVDZ
    Blend: AUG-CC-PVDZ
  Basis Set: (AUG-CC-PVDZ AUX)
    Blend: AUG-CC-PVDZ-JKFIT
  @DF-RKS Final Energy:   -76.41947838415111
    Total Energy =                        -76.4194783841510912
    Molecular point group: c1
  Basis Set: AUG-CC-PVDZ
    Blend: AUG-CC-PVDZ
  Basis Set: (AUG-CC-PVDZ AUX)
    Blend: AUG-CC-PVDZ-JKFIT
  @DF-RKS Final Energy:   -76.42039515688182
    Total Energy =                        -76.4203951568818098
  Basis Set: AUG-CC-PVDZ
    Blend: AUG-CC-PVDZ
  Basis Set: (AUG-CC-PVDZ AUX)
    Blend: AUG-CC-PVDZ-JKFIT
  @DF-RKS Final Energy: -1188.20616523628360
    Total Energy =                      -1188.2061652362838231
  Multiplicity = 1
  Basis Set: AUG-CC-PVDZ
    Blend: AUG-CC-PVDZ
  Basis Set: (AUG-CC-PVDZ AUX)
    Blend: AUG-CC-PVDZ-JKFIT
  @DF-RKS Final Energy: -1188.20524906081914
    Total Energy =                      -1188.2052490608189146
    Molecular point group: c1

    Geometry (in Angstrom), charge = 0, multiplicity = 1:

       Center              X                  Y                   Z               Mass
    ------------   -----------------  -----------------  -----------------  -----------------
         N           -0.728996941813    -1.551576349352     0.308459268140    14.003074004430
         C           -2.005733941813    -1.305404349352     0.745757268140    12.000000000000
         C           -2.334082941813     0.195560650648     1.030715268140    12.000000000000
         F           -3.641325941813     0.444616650648     0.663623268140    18.998403162730
         F           -2.243148941813     0.386064650648     2.390580268140    18.998403162730
         C           -1.400745941813     1.250759650648     0.338716268140    12.000000000000
         C           -0.054465941813     0.783661650648    -0.069602731860    12.000000000000
         C            0.894414058187     1.695035650648    -0.581406731860    12.000000000000
         C            2.173268058187     1.266138650648    -0.958350731860    12.000000000000
         C            2.519965058187    -0.106702349352    -0.865928731860    12.000000000000
         C            1.548574058187    -1.029951349352    -0.421855731860    12.000000000000
         C            0.264584058187    -0.603632349352    -0.041427731860    12.000000000000
         S            4.103988058187    -0.760210349352    -1.303882731860    31.972071174400
         C            5.112894058187    -0.449969349352     0.167173268140    12.000000000000
         O           -2.778457941813    -2.227955349352     0.964281268140    15.994914619570
         O           -1.752150941813     2.424063650648     0.218862268140    15.994914619570
         H            2.888818058187     2.006835650648    -1.314453731860     1.007825032230
         H            0.611056058187     2.744758650648    -0.661510731860     1.007825032230
         H           -0.547118941813    -2.538814349352     0.192218268140     1.007825032230
         H            1.802910058187    -2.088623349352    -0.356629731860     1.007825032230
         H            5.168387058187     0.627601650648     0.349793268140     1.007825032230
         H            4.659237058187    -0.947725349352     1.029856268140     1.007825032230
         H            6.118265058187    -0.847673349352    -0.000276731860     1.007825032230
         O           -2.135201741813     0.379573650648    -1.689170131860    15.994914619570
         H           -2.497970741813     1.236307650648    -1.453714131860     1.007825032230
         H           -1.548062741813     0.498700650648    -2.437043131860     1.007825032230

  Charge       = 0
  Multiplicity = 1
  Basis Set: AUG-CC-PVDZ
    Blend: AUG-CC-PVDZ
  Basis Set: (AUG-CC-PVDZ AUX)
    Blend: AUG-CC-PVDZ-JKFIT

    Orbital Energies [Eh]
    ---------------------

    Doubly Occupied:

       1A    -89.066146     2A    -24.874656     3A    -24.864941
       4A    -19.304123     5A    -19.298031     6A    -19.279569
       7A    -14.527423     8A    -10.503363     9A    -10.447698
      10A    -10.437776    11A    -10.399430    12A    -10.372516
      13A    -10.351177    14A    -10.346390    15A    -10.344925
      16A    -10.342327    17A    -10.339764    18A     -8.083597
      19A     -6.033459    20A     -6.029339    21A     -6.022401
      22A     -1.381509    23A     -1.323838    24A     -1.183592
      25A     -1.180845    26A     -1.149930    27A     -1.084920
      28A     -0.994981    29A     -0.933588    30A     -0.898344
      31A     -0.883301    32A     -0.861961    33A     -0.788391
      34A     -0.759738    35A     -0.746465    36A     -0.736255
      37A     -0.693064    38A     -0.676585    39A     -0.670434
      40A     -0.657091    41A     -0.636732    42A     -0.623758
      43A     -0.586742    44A     -0.576611    45A     -0.563438
      46A     -0.557467    47A     -0.553466    48A     -0.552129
      49A     -0.546086    50A     -0.535242    51A     -0.530474
      52A     -0.523450    53A     -0.519990    54A     -0.511282
      55A     -0.503054    56A     -0.496286    57A     -0.492321
      58A     -0.476117    59A     -0.469634    60A     -0.436917
      61A     -0.425752    62A     -0.415904    63A     -0.392153
      64A     -0.367474    65A     -0.361555    66A     -0.333949
      67A     -0.327679

  @DF-RKS Final Energy: -1264.62371192228329

   => Energetics <=

    Nuclear Repulsion Energy =           1365.9735294830959447
    One-Electron Energy =               -4451.2521021308530180
    Two-Electron Energy =                1916.7211316174466447
    DFT Exchange-Correlation Energy =     -96.0488659903126916
    Empirical Dispersion Energy =          -0.0174049016603883
    VV10 Nonlocal Energy =                  0.0000000000000000
    Total Energy =                      -1264.6237119222832916

  Dipole Moment: [D]
     X:     6.0842      Y:     0.2339      Z:    -1.9129     Total:     6.3822

*** Psi4 exiting successfully. Buy a developer a beer!
