                               Psi4 1.3.2 release

  ==> Input File <==

--------------------------------------------------------------------------
molecule {
0 1
  N                 -0.8428290    -1.4083820     0.0066210
  C                 -2.1332900    -1.1277960     0.3798720
  C                 -2.4292590     0.3838470     0.6455610
  F                 -3.7509640     0.6635760     0.3443400
  F                 -2.2868720     0.5840850     2.0003210
  C                 -1.4867430     1.4036230    -0.0816350
  C                 -0.1354400     0.9075720    -0.4373280
  C                  0.8340730     1.7890790    -0.9624210
  C                  2.1194540     1.3351410    -1.2846030
  C                  2.4560690    -0.0330230    -1.1146520
  C                  1.4670190    -0.9296050    -0.6545140
  C                  0.1734730    -0.4800210    -0.3372240
  S                  4.0482530    -0.7136320    -1.4755480
  C                  5.0229460    -0.3209240    -0.0008380
  O                 -2.9506990    -2.0270760     0.5335290
  O                 -1.8231240     2.5749750    -0.2454090
  H                  2.8479870     2.0541620    -1.6586360
  H                  0.5613700     2.8361600    -1.0959240
  H                 -0.6743700    -2.3995180    -0.0952840
  H                  1.7145800    -1.9843230    -0.5271240
  H                  5.0905510     0.7655620     0.1114950
  H                  4.5393410    -0.7545560     0.8800610
  H                  6.0261560    -0.7422870    -0.1142930
--
0 1
  O                 -2.7595439    -0.0647770    -2.4865152
  H                 -3.4569309    -0.7240720    -2.5142882
  H                 -3.1118679     0.7437980    -2.8644562
}
memory 16GB
set_num_threads(8)
psi4_io.set_default_path("/scratch/Psi4-ligand")
set maxiter 500
set freeze_core True
set PROPERTIES_ORIGIN ["COM"]
e_dim= energy('wb97x-d/aug-cc-pVDZ',bsse_type='cp')

psi4.print_out('CP Energy = %10.6f' % (e_dim))
clean()
--------------------------------------------------------------------------

    Molecular point group: c1
  Charge       = 0
  Multiplicity = 1
  Basis Set: AUG-CC-PVDZ
    Blend: AUG-CC-PVDZ
  Basis Set: (AUG-CC-PVDZ AUX)
    Blend: AUG-CC-PVDZ-JKFIT
  @DF-RKS Final Energy:   -76.41957583214383
    Total Energy =                        -76.4195758321438348
    Molecular point group: c1
  Basis Set: AUG-CC-PVDZ
    Blend: AUG-CC-PVDZ
  Basis Set: (AUG-CC-PVDZ AUX)
    Blend: AUG-CC-PVDZ-JKFIT
  @DF-RKS Final Energy:   -76.41996972440475
    Total Energy =                        -76.4199697244047655
  Basis Set: AUG-CC-PVDZ
    Blend: AUG-CC-PVDZ
  Basis Set: (AUG-CC-PVDZ AUX)
    Blend: AUG-CC-PVDZ-JKFIT
  @DF-RKS Final Energy: -1188.20531227350830
    Total Energy =                      -1188.2053122735082979
  Multiplicity = 1
  Basis Set: AUG-CC-PVDZ
    Blend: AUG-CC-PVDZ
  Basis Set: (AUG-CC-PVDZ AUX)
    Blend: AUG-CC-PVDZ-JKFIT
  @DF-RKS Final Energy: -1188.20489184350185
    Total Energy =                      -1188.2048918435020823
    Molecular point group: c1

    Geometry (in Angstrom), charge = 0, multiplicity = 1:

       Center              X                  Y                   Z               Mass
    ------------   -----------------  -----------------  -----------------  -----------------
         N           -0.715357186237    -1.499641209350     0.358367677438    14.003074004430
         C           -2.005818186237    -1.219055209350     0.731618677438    12.000000000000
         C           -2.301787186237     0.292587790650     0.997307677438    12.000000000000
         F           -3.623492186237     0.572316790650     0.696086677438    18.998403162730
         F           -2.159400186237     0.492825790650     2.352067677438    18.998403162730
         C           -1.359271186237     1.312363790650     0.270111677438    12.000000000000
         C           -0.007968186237     0.816312790650    -0.085581322562    12.000000000000
         C            0.961544813763     1.697819790650    -0.610674322562    12.000000000000
         C            2.246925813763     1.243881790650    -0.932856322562    12.000000000000
         C            2.583540813763    -0.124282209350    -0.762905322562    12.000000000000
         C            1.594490813763    -1.020864209350    -0.302767322562    12.000000000000
         C            0.300944813763    -0.571280209350     0.014522677438    12.000000000000
         S            4.175724813763    -0.804891209350    -1.123801322562    31.972071174400
         C            5.150417813763    -0.412183209350     0.350908677438    12.000000000000
         O           -2.823227186237    -2.118335209350     0.885275677438    15.994914619570
         O           -1.695652186237     2.483715790650     0.106337677438    15.994914619570
         H            2.975458813763     1.962902790650    -1.306889322562     1.007825032230
         H            0.688841813763     2.744900790650    -0.744177322562     1.007825032230
         H           -0.546898186237    -2.490777209350     0.256462677438     1.007825032230
         H            1.842051813763    -2.075582209350    -0.175377322562     1.007825032230
         H            5.218022813763     0.674302790650     0.463241677438     1.007825032230
         H            4.666812813763    -0.845815209350     1.231807677438     1.007825032230
         H            6.153627813763    -0.833546209350     0.237453677438     1.007825032230
         O           -2.632072086237    -0.156036209350    -2.134768522562    15.994914619570
         H           -3.329459086237    -0.815331209350    -2.162541522562     1.007825032230
         H           -2.984396086237     0.652538790650    -2.512709522562     1.007825032230

  Charge       = 0
  Multiplicity = 1
  Basis Set: AUG-CC-PVDZ
    Blend: AUG-CC-PVDZ
  Basis Set: (AUG-CC-PVDZ AUX)
    Blend: AUG-CC-PVDZ-JKFIT

    Orbital Energies [Eh]
    ---------------------

    Doubly Occupied:

       1A    -89.064427     2A    -24.872430     3A    -24.859581
       4A    -19.296151     5A    -19.291362     6A    -19.281442
       7A    -14.527748     8A    -10.500957     9A    -10.449105
      10A    -10.429519    11A    -10.399286    12A    -10.371519
      13A    -10.348333    14A    -10.344500    15A    -10.342528
      16A    -10.340882    17A    -10.336766    18A     -8.081887
      19A     -6.031750    20A     -6.027632    21A     -6.020685
      22A     -1.378102    23A     -1.318097    24A     -1.182603
      25A     -1.172159    26A     -1.132727    27A     -1.084700
      28A     -0.992594    29A     -0.931116    30A     -0.896184
      31A     -0.880775    32A     -0.859550    33A     -0.785689
      34A     -0.757630    35A     -0.744023    36A     -0.733145
      37A     -0.688222    38A     -0.669607    39A     -0.660131
      40A     -0.643657    41A     -0.635529    42A     -0.621465
      43A     -0.583577    44A     -0.573091    45A     -0.561697
      46A     -0.556147    47A     -0.550398    48A     -0.548380
      49A     -0.540838    50A     -0.532781    51A     -0.528811
      52A     -0.520926    53A     -0.508476    54A     -0.504682
      55A     -0.495466    56A     -0.492976    57A     -0.486527
      58A     -0.473737    59A     -0.466766    60A     -0.434304
      61A     -0.419548    62A     -0.413838    63A     -0.391206
      64A     -0.364894    65A     -0.360471    66A     -0.332839
      67A     -0.326214

  @DF-RKS Final Energy: -1264.63462355792240

   => Energetics <=

    Nuclear Repulsion Energy =           1342.0462631255809356
    One-Electron Energy =               -4403.9152014938435968
    Two-Electron Energy =                1893.2623253845108593
    DFT Exchange-Correlation Energy =     -96.0116012992006347
    Empirical Dispersion Energy =          -0.0164092749700940
    VV10 Nonlocal Energy =                  0.0000000000000000
    Total Energy =                      -1264.6346235579226231

  Dipole Moment: [D]
     X:     4.4042      Y:    -0.8036      Z:    -1.5607     Total:     4.7411

*** Psi4 exiting successfully. Buy a developer a beer!
