                               Psi4 1.3.2 release

  ==> Input File <==

--------------------------------------------------------------------------
molecule {
0 1
  N                 -0.8428290    -1.4083820     0.0066210
  C                 -2.1332900    -1.1277960     0.3798720
  C                 -2.4292590     0.3838470     0.6455610
  F                 -3.7509640     0.6635760     0.3443400
  F                 -2.2868720     0.5840850     2.0003210
  C                 -1.4867430     1.4036230    -0.0816350
  C                 -0.1354400     0.9075720    -0.4373280
  C                  0.8340730     1.7890790    -0.9624210
  C                  2.1194540     1.3351410    -1.2846030
  C                  2.4560690    -0.0330230    -1.1146520
  C                  1.4670190    -0.9296050    -0.6545140
  C                  0.1734730    -0.4800210    -0.3372240
  S                  4.0482530    -0.7136320    -1.4755480
  C                  5.0229460    -0.3209240    -0.0008380
  O                 -2.9506990    -2.0270760     0.5335290
  O                 -1.8231240     2.5749750    -0.2454090
  H                  2.8479870     2.0541620    -1.6586360
  H                  0.5613700     2.8361600    -1.0959240
  H                 -0.6743700    -2.3995180    -0.0952840
  H                  1.7145800    -1.9843230    -0.5271240
  H                  5.0905510     0.7655620     0.1114950
  H                  4.5393410    -0.7545560     0.8800610
  H                  6.0261560    -0.7422870    -0.1142930
--
0 1
  O                 -2.6994921     0.0167910    -1.9170468
  H                 -3.3968791    -0.6425040    -1.9448198
  H                 -3.0518161     0.8253660    -2.2949878
}
memory 16GB
set_num_threads(8)
psi4_io.set_default_path("/scratch/Psi4-ligand")
set maxiter 500
set freeze_core True
set PROPERTIES_ORIGIN ["COM"]
e_dim= energy('wb97x-d/aug-cc-pVDZ',bsse_type='cp')

psi4.print_out('CP Energy = %10.6f' % (e_dim))
clean()
--------------------------------------------------------------------------

    Molecular point group: c1
  Charge       = 0
  Multiplicity = 1
  Basis Set: AUG-CC-PVDZ
    Blend: AUG-CC-PVDZ
  Basis Set: (AUG-CC-PVDZ AUX)
    Blend: AUG-CC-PVDZ-JKFIT
  @DF-RKS Final Energy:   -76.41957583222114
    Total Energy =                        -76.4195758322211418
    Molecular point group: c1
  Basis Set: AUG-CC-PVDZ
    Blend: AUG-CC-PVDZ
  Basis Set: (AUG-CC-PVDZ AUX)
    Blend: AUG-CC-PVDZ-JKFIT
  @DF-RKS Final Energy:   -76.42034278577847
    Total Energy =                        -76.4203427857784732
  Basis Set: AUG-CC-PVDZ
    Blend: AUG-CC-PVDZ
  Basis Set: (AUG-CC-PVDZ AUX)
    Blend: AUG-CC-PVDZ-JKFIT
  @DF-RKS Final Energy: -1188.20581298779211
    Total Energy =                      -1188.2058129877921147
  Multiplicity = 1
  Basis Set: AUG-CC-PVDZ
    Blend: AUG-CC-PVDZ
  Basis Set: (AUG-CC-PVDZ AUX)
    Blend: AUG-CC-PVDZ-JKFIT
  @DF-RKS Final Energy: -1188.20489014324198
    Total Energy =                      -1188.2048901432419825
    Molecular point group: c1

    Geometry (in Angstrom), charge = 0, multiplicity = 1:

       Center              X                  Y                   Z               Mass
    ------------   -----------------  -----------------  -----------------  -----------------
         N           -0.719500689892    -1.505269305528     0.319075026820    14.003074004430
         C           -2.009961689892    -1.224683305528     0.692326026820    12.000000000000
         C           -2.305930689892     0.286959694472     0.958015026820    12.000000000000
         F           -3.627635689892     0.566688694472     0.656794026820    18.998403162730
         F           -2.163543689892     0.487197694472     2.312775026820    18.998403162730
         C           -1.363414689892     1.306735694472     0.230819026820    12.000000000000
         C           -0.012111689892     0.810684694472    -0.124873973180    12.000000000000
         C            0.957401310108     1.692191694472    -0.649966973180    12.000000000000
         C            2.242782310108     1.238253694472    -0.972148973180    12.000000000000
         C            2.579397310108    -0.129910305528    -0.802197973180    12.000000000000
         C            1.590347310108    -1.026492305528    -0.342059973180    12.000000000000
         C            0.296801310108    -0.576908305528    -0.024769973180    12.000000000000
         S            4.171581310108    -0.810519305528    -1.163093973180    31.972071174400
         C            5.146274310108    -0.417811305528     0.311616026820    12.000000000000
         O           -2.827370689892    -2.123963305528     0.845983026820    15.994914619570
         O           -1.699795689892     2.478087694472     0.067045026820    15.994914619570
         H            2.971315310108     1.957274694472    -1.346181973180     1.007825032230
         H            0.684698310108     2.739272694472    -0.783469973180     1.007825032230
         H           -0.551041689892    -2.496405305528     0.217170026820     1.007825032230
         H            1.837908310108    -2.081210305528    -0.214669973180     1.007825032230
         H            5.213879310108     0.668674694472     0.423949026820     1.007825032230
         H            4.662669310108    -0.851443305528     1.192515026820     1.007825032230
         H            6.149484310108    -0.839174305528     0.198161026820     1.007825032230
         O           -2.576163789892    -0.080096305528    -1.604592773180    15.994914619570
         H           -3.273550789892    -0.739391305528    -1.632365773180     1.007825032230
         H           -2.928487789892     0.728478694472    -1.982533773180     1.007825032230

  Charge       = 0
  Multiplicity = 1
  Basis Set: AUG-CC-PVDZ
    Blend: AUG-CC-PVDZ
  Basis Set: (AUG-CC-PVDZ AUX)
    Blend: AUG-CC-PVDZ-JKFIT

    Orbital Energies [Eh]
    ---------------------

    Doubly Occupied:

       1A    -89.063584     2A    -24.869201     3A    -24.856919
       4A    -19.300060     5A    -19.292983     6A    -19.280177
       7A    -14.525758     8A    -10.497912     9A    -10.448106
      10A    -10.428292    11A    -10.397516    12A    -10.370118
      13A    -10.346802    14A    -10.343044    15A    -10.341400
      16A    -10.340116    17A    -10.335698    18A     -8.081041
      19A     -6.030900    20A     -6.026787    21A     -6.019845
      22A     -1.375770    23A     -1.316319    24A     -1.182283
      25A     -1.170592    26A     -1.145208    27A     -1.083058
      28A     -0.991325    29A     -0.929848    30A     -0.894482
      31A     -0.879433    32A     -0.858074    33A     -0.784496
      34A     -0.756237    35A     -0.742451    36A     -0.731948
      37A     -0.687011    38A     -0.668195    39A     -0.660139
      40A     -0.656327    41A     -0.634162    42A     -0.620397
      43A     -0.582158    44A     -0.571764    45A     -0.563088
      46A     -0.556422    47A     -0.549347    48A     -0.547698
      49A     -0.539254    50A     -0.531826    51A     -0.528180
      52A     -0.519814    53A     -0.510956    54A     -0.504933
      55A     -0.501145    56A     -0.491980    57A     -0.484491
      58A     -0.472640    59A     -0.465496    60A     -0.434095
      61A     -0.424405    62A     -0.412946    63A     -0.389983
      64A     -0.363285    65A     -0.359196    66A     -0.331844
      67A     -0.325311

  @DF-RKS Final Energy: -1264.63229610204439

   => Energetics <=

    Nuclear Repulsion Energy =           1360.2604153929482891
    One-Electron Energy =               -4440.3794778574410884
    Two-Electron Energy =                1911.5382982101120888
    DFT Exchange-Correlation Energy =     -96.0343429243121705
    Empirical Dispersion Energy =          -0.0171889233515175
    VV10 Nonlocal Energy =                  0.0000000000000000
    Total Energy =                      -1264.6322961020443927

  Dipole Moment: [D]
     X:     4.2098      Y:    -0.8348      Z:    -1.6958     Total:     4.6147

*** Psi4 exiting successfully. Buy a developer a beer!
