                               Psi4 1.3.2 release

  ==> Input File <==

--------------------------------------------------------------------------
molecule {
0 1
  N                 -0.8260030    -1.3282960    -0.0779940
  C                 -2.1092650    -1.0544570     0.3197650
  C                 -2.3948000     0.4430980     0.6653630
  F                 -3.6960120     0.7506790     0.3113310
  F                 -2.3114660     0.5636400     2.0338450
  C                 -1.4159460     1.4949620     0.0354070
  C                 -0.0748680     0.9990970    -0.3561590
  C                  0.9166740     1.8984060    -0.8047210
  C                  2.1915510     1.4433670    -1.1643410
  C                  2.4959700     0.0584930    -1.1092430
  C                  1.4871680    -0.8493330    -0.7206960
  C                  0.2051270    -0.3977250    -0.3635390
  S                  4.0705370    -0.6284060    -1.5292630
  C                  5.0499670    -0.3926990    -0.0252100
  O                 -2.9367190    -1.9487370     0.4345980
  O                 -1.7231300     2.6833150    -0.0299150
  H                  2.9370610     2.1736930    -1.4774200
  H                  0.6671740     2.9585660    -0.8554840
  H                 -0.6730600    -2.3132220    -0.2442190
  H                  1.7086540    -1.9167780    -0.6859390
  H                  5.1799690     0.6784470     0.1577010
  H                  4.5314840    -0.8522290     0.8222450
  H                  6.0275000    -0.8654740    -0.1593070
--
0 1
  O                 -2.5109326     0.2924241    -2.0912413
  H                 -3.3431156     0.1069021    -1.6506403
  H                 -2.6141856     1.1043841    -2.5905633
}
memory 16GB
set_num_threads(8)
psi4_io.set_default_path("/scratch/Psi4-ligand")
set maxiter 500
set freeze_core True
set PROPERTIES_ORIGIN ["COM"]
e_dim= energy('wb97x-d/aug-cc-pVDZ',bsse_type='cp')

psi4.print_out('CP Energy = %10.6f' % (e_dim))
clean()
--------------------------------------------------------------------------

    Molecular point group: c1
  Charge       = 0
  Multiplicity = 1
  Basis Set: AUG-CC-PVDZ
    Blend: AUG-CC-PVDZ
  Basis Set: (AUG-CC-PVDZ AUX)
    Blend: AUG-CC-PVDZ-JKFIT
  @DF-RKS Final Energy:   -76.41950352901308
    Total Energy =                        -76.4195035290130988
    Molecular point group: c1
  Basis Set: AUG-CC-PVDZ
    Blend: AUG-CC-PVDZ
  Basis Set: (AUG-CC-PVDZ AUX)
    Blend: AUG-CC-PVDZ-JKFIT
  @DF-RKS Final Energy:   -76.42028001478845
    Total Energy =                        -76.4202800147884460
  Basis Set: AUG-CC-PVDZ
    Blend: AUG-CC-PVDZ
  Basis Set: (AUG-CC-PVDZ AUX)
    Blend: AUG-CC-PVDZ-JKFIT
  @DF-RKS Final Energy: -1188.20620080938625
    Total Energy =                      -1188.2062008093862460
  Multiplicity = 1
  Basis Set: AUG-CC-PVDZ
    Blend: AUG-CC-PVDZ
  Basis Set: (AUG-CC-PVDZ AUX)
    Blend: AUG-CC-PVDZ-JKFIT
  @DF-RKS Final Energy: -1188.20532161206302
    Total Energy =                      -1188.2053216120627894
    Molecular point group: c1

    Geometry (in Angstrom), charge = 0, multiplicity = 1:

       Center              X                  Y                   Z               Mass
    ------------   -----------------  -----------------  -----------------  -----------------
         N           -0.751304457041    -1.510293594858     0.233943058870    14.003074004430
         C           -2.034566457041    -1.236454594858     0.631702058870    12.000000000000
         C           -2.320101457041     0.261100405142     0.977300058870    12.000000000000
         F           -3.621313457041     0.568681405142     0.623268058870    18.998403162730
         F           -2.236767457041     0.381642405142     2.345782058870    18.998403162730
         C           -1.341247457041     1.312964405142     0.347344058870    12.000000000000
         C           -0.000169457041     0.817099405142    -0.044221941130    12.000000000000
         C            0.991372542959     1.716408405142    -0.492783941130    12.000000000000
         C            2.266249542959     1.261369405142    -0.852403941130    12.000000000000
         C            2.570668542959    -0.123504594858    -0.797305941130    12.000000000000
         C            1.561866542959    -1.031330594858    -0.408758941130    12.000000000000
         C            0.279825542959    -0.579722594858    -0.051601941130    12.000000000000
         S            4.145235542959    -0.810403594858    -1.217325941130    31.972071174400
         C            5.124665542959    -0.574696594858     0.286727058870    12.000000000000
         O           -2.862020457041    -2.130734594858     0.746535058870    15.994914619570
         O           -1.648431457041     2.501317405142     0.282022058870    15.994914619570
         H            3.011759542959     1.991695405142    -1.165482941130     1.007825032230
         H            0.741872542959     2.776568405142    -0.543546941130     1.007825032230
         H           -0.598361457041    -2.495219594858     0.067718058870     1.007825032230
         H            1.783352542959    -2.098775594858    -0.374001941130     1.007825032230
         H            5.254667542959     0.496449405142     0.469638058870     1.007825032230
         H            4.606182542959    -1.034226594858     1.134182058870     1.007825032230
         H            6.102198542959    -1.047471594858     0.152630058870     1.007825032230
         O           -2.436234057041     0.110426505142    -1.779304241130    15.994914619570
         H           -3.268417057041    -0.075095494858    -1.338703241130     1.007825032230
         H           -2.539487057041     0.922386505142    -2.278626241130     1.007825032230

  Charge       = 0
  Multiplicity = 1
  Basis Set: AUG-CC-PVDZ
    Blend: AUG-CC-PVDZ
  Basis Set: (AUG-CC-PVDZ AUX)
    Blend: AUG-CC-PVDZ-JKFIT

    Orbital Energies [Eh]
    ---------------------

    Doubly Occupied:

       1A    -89.064280     2A    -24.876940     3A    -24.874135
       4A    -19.296068     5A    -19.295403     6A    -19.284199
       7A    -14.528238     8A    -10.506010     9A    -10.451212
      10A    -10.431952    11A    -10.398657    12A    -10.371057
      13A    -10.348664    14A    -10.344451    15A    -10.342566
      16A    -10.340817    17A    -10.337029    18A     -8.081755
      19A     -6.031616    20A     -6.027498    21A     -6.020552
      22A     -1.386726    23A     -1.330023    24A     -1.186094
      25A     -1.173439    26A     -1.140771    27A     -1.085787
      28A     -0.992870    29A     -0.931391    30A     -0.898095
      31A     -0.881354    32A     -0.861604    33A     -0.787252
      34A     -0.759109    35A     -0.745873    36A     -0.735225
      37A     -0.693062    38A     -0.673512    39A     -0.671760
      40A     -0.653130    41A     -0.636444    42A     -0.623209
      43A     -0.584094    44A     -0.574590    45A     -0.565164
      46A     -0.558378    47A     -0.553061    48A     -0.550238
      49A     -0.546582    50A     -0.538089    51A     -0.529106
      52A     -0.524097    53A     -0.522728    54A     -0.507658
      55A     -0.498103    56A     -0.495097    57A     -0.489414
      58A     -0.475352    59A     -0.468286    60A     -0.434914
      61A     -0.423827    62A     -0.414253    63A     -0.393826
      64A     -0.366599    65A     -0.360474    66A     -0.333074
      67A     -0.326425

  @DF-RKS Final Energy: -1264.63390056980984

   => Energetics <=

    Nuclear Repulsion Energy =           1358.1959364696508601
    One-Electron Energy =               -4435.8405537550961526
    Two-Electron Energy =                1909.0612763250826447
    DFT Exchange-Correlation Energy =     -96.0334144382542831
    Empirical Dispersion Energy =          -0.0171451711928860
    VV10 Nonlocal Energy =                  0.0000000000000000
    Total Energy =                      -1264.6339005698098390

  Dipole Moment: [D]
     X:     4.5923      Y:    -0.2151      Z:    -1.0969     Total:     4.7264

*** Psi4 exiting successfully. Buy a developer a beer!
