                               Psi4 1.3.2 release

  ==> Input File <==

--------------------------------------------------------------------------
molecule {
0 1
  N                 -0.7685550    -1.3927420     0.3453050
  C                 -2.0454150    -1.1492830     0.7782580
  C                 -2.5270200     0.3364600     0.6883900
  F                 -3.6014700     0.3707270    -0.1712770
  F                 -2.9637720     0.7084010     1.9405340
  C                 -1.4851110     1.4030980     0.2004280
  C                 -0.1517140     0.9179150    -0.2225990
  C                  0.8248890     1.8303570    -0.6770190
  C                  2.0740430     1.3877300    -1.1289330
  C                  2.4015320     0.0083160    -1.0705750
  C                  1.4441770    -0.9018200    -0.5728380
  C                  0.1767120    -0.4643990    -0.1514740
  S                  3.9507640    -0.6695320    -1.5931640
  C                  5.0717630    -0.3031620    -0.2197520
  O                 -2.7437950    -2.0628100     1.1926300
  O                 -1.7801450     2.5938830     0.1635240
  H                  2.7815910     2.1208260    -1.5142670
  H                  0.5666820     2.8897050    -0.7056400
  H                 -0.5187200    -2.3693380     0.4195400
  H                  1.6892370    -1.9636950    -0.5229130
  H                  5.4085280     0.7353380    -0.2958230
  H                  4.5520560    -0.4472920     0.7330920
  H                  5.9333610    -0.9753140    -0.2724440
--
0 1
  O                  3.1867160     1.5433770     1.9389190
  H                  2.6635300     1.7179970     1.1545180
  H                  2.8833660     2.1253060     2.6359380
}
memory 16GB
set_num_threads(8)
psi4_io.set_default_path("/scratch/Psi4-ligand")
set maxiter 500
set freeze_core True
set PROPERTIES_ORIGIN ["COM"]
e_dim= energy('wb97x-d/aug-cc-pVDZ',bsse_type='cp')

psi4.print_out('CP Energy = %10.6f' % (e_dim))
clean()
--------------------------------------------------------------------------

    Molecular point group: c1
  Charge       = 0
  Multiplicity = 1
  Basis Set: AUG-CC-PVDZ
    Blend: AUG-CC-PVDZ
  Basis Set: (AUG-CC-PVDZ AUX)
    Blend: AUG-CC-PVDZ-JKFIT
  @DF-RKS Final Energy:   -76.41947771563669
    Total Energy =                        -76.4194777156367167
    Molecular point group: c1
  Basis Set: AUG-CC-PVDZ
    Blend: AUG-CC-PVDZ
  Basis Set: (AUG-CC-PVDZ AUX)
    Blend: AUG-CC-PVDZ-JKFIT
  @DF-RKS Final Energy:   -76.41999146970576
    Total Energy =                        -76.4199914697057778
  Basis Set: AUG-CC-PVDZ
    Blend: AUG-CC-PVDZ
  Basis Set: (AUG-CC-PVDZ AUX)
    Blend: AUG-CC-PVDZ-JKFIT
  @DF-RKS Final Energy: -1188.20590386170079
    Total Energy =                      -1188.2059038617007900
  Multiplicity = 1
  Basis Set: AUG-CC-PVDZ
    Blend: AUG-CC-PVDZ
  Basis Set: (AUG-CC-PVDZ AUX)
    Blend: AUG-CC-PVDZ-JKFIT
  @DF-RKS Final Energy: -1188.20538859873272
    Total Energy =                      -1188.2053885987324975
    Molecular point group: c1

    Geometry (in Angstrom), charge = 0, multiplicity = 1:

       Center              X                  Y                   Z               Mass
    ------------   -----------------  -----------------  -----------------  -----------------
         N           -1.017583204281    -1.597392918164     0.294170653575    14.003074004430
         C           -2.294443204281    -1.353933918164     0.727123653575    12.000000000000
         C           -2.776048204281     0.131809081836     0.637255653575    12.000000000000
         F           -3.850498204281     0.166076081836    -0.222411346425    18.998403162730
         F           -3.212800204281     0.503750081836     1.889399653575    18.998403162730
         C           -1.734139204281     1.198447081836     0.149293653575    12.000000000000
         C           -0.400742204281     0.713264081836    -0.273733346425    12.000000000000
         C            0.575860795719     1.625706081836    -0.728153346425    12.000000000000
         C            1.825014795719     1.183079081836    -1.180067346425    12.000000000000
         C            2.152503795719    -0.196334918164    -1.121709346425    12.000000000000
         C            1.195148795719    -1.106470918164    -0.623972346425    12.000000000000
         C           -0.072316204281    -0.669049918164    -0.202608346425    12.000000000000
         S            3.701735795719    -0.874182918164    -1.644298346425    31.972071174400
         C            4.822734795719    -0.507812918164    -0.270886346425    12.000000000000
         O           -2.992823204281    -2.267460918164     1.141495653575    15.994914619570
         O           -2.029173204281     2.389232081836     0.112389653575    15.994914619570
         H            2.532562795719     1.916175081836    -1.565401346425     1.007825032230
         H            0.317653795719     2.685054081836    -0.756774346425     1.007825032230
         H           -0.767748204281    -2.573988918164     0.368405653575     1.007825032230
         H            1.440208795719    -2.168345918164    -0.574047346425     1.007825032230
         H            5.159499795719     0.530687081836    -0.346957346425     1.007825032230
         H            4.303027795719    -0.651942918164     0.681957653575     1.007825032230
         H            5.684332795719    -1.179964918164    -0.323578346425     1.007825032230
         O            2.937687795719     1.338726081836     1.887784653575    15.994914619570
         H            2.414501795719     1.513346081836     1.103383653575     1.007825032230
         H            2.634337795719     1.920655081836     2.584803653575     1.007825032230

  Charge       = 0
  Multiplicity = 1
  Basis Set: AUG-CC-PVDZ
    Blend: AUG-CC-PVDZ
  Basis Set: (AUG-CC-PVDZ AUX)
    Blend: AUG-CC-PVDZ-JKFIT

    Orbital Energies [Eh]
    ---------------------

    Doubly Occupied:

       1A    -89.067813     2A    -24.877741     3A    -24.875905
       4A    -19.306769     5A    -19.290068     6A    -19.285572
       7A    -14.539562     8A    -10.512178     9A    -10.457709
      10A    -10.439216    11A    -10.411860    12A    -10.382702
      13A    -10.360215    14A    -10.357798    15A    -10.352969
      16A    -10.348750    17A    -10.336874    18A     -8.085315
      19A     -6.035221    20A     -6.030994    21A     -6.024131
      22A     -1.388104    23A     -1.332150    24A     -1.193624
      25A     -1.184520    26A     -1.128699    27A     -1.097218
      28A     -1.004689    29A     -0.939437    30A     -0.904721
      31A     -0.892812    32A     -0.866869    33A     -0.793024
      34A     -0.769300    35A     -0.755560    36A     -0.740682
      37A     -0.699107    38A     -0.682226    39A     -0.672161
      40A     -0.646495    41A     -0.643490    42A     -0.632264
      43A     -0.594118    44A     -0.582204    45A     -0.570316
      46A     -0.565801    47A     -0.560611    48A     -0.557727
      49A     -0.553398    50A     -0.538362    51A     -0.528879
      52A     -0.524700    53A     -0.521152    54A     -0.514342
      55A     -0.503094    56A     -0.498507    57A     -0.487975
      58A     -0.480008    59A     -0.477472    60A     -0.442130
      61A     -0.421513    62A     -0.416369    63A     -0.400630
      64A     -0.374609    65A     -0.371338    66A     -0.344345
      67A     -0.330305

  @DF-RKS Final Energy: -1264.63116162561550

   => Energetics <=

    Nuclear Repulsion Energy =           1329.9927402901537334
    One-Electron Energy =               -4378.6876368253988403
    Two-Electron Energy =                1880.1071659143340185
    DFT Exchange-Correlation Energy =     -96.0267822533048871
    Empirical Dispersion Energy =          -0.0166487513997948
    VV10 Nonlocal Energy =                  0.0000000000000000
    Total Energy =                      -1264.6311616256155048

  Dipole Moment: [D]
     X:     5.3015      Y:    -0.0772      Z:    -0.6762     Total:     5.3450

*** Psi4 exiting successfully. Buy a developer a beer!
