                               Psi4 1.3.2 release

  ==> Input File <==

--------------------------------------------------------------------------
molecule {
0 1
  N                 -0.9822580    -1.4639280     0.2190630
  C                 -2.2712640    -1.1572690     0.5671010
  C                 -2.6379910     0.3633640     0.5666410
  F                 -3.6579160     0.5420250    -0.3406010
  F                 -3.1158940     0.6744710     1.8203130
  C                 -1.4959220     1.3801050     0.2166770
  C                 -0.1658920     0.8276470    -0.1304690
  C                  0.8956910     1.6960470    -0.4710440
  C                  2.1574060     1.1914630    -0.8096280
  C                  2.3864770    -0.2103720    -0.8315260
  C                  1.3290480    -1.0771030    -0.4793250
  C                  0.0633070    -0.5762150    -0.1288800
  S                  3.9095680    -0.9821520    -1.3105370
  C                  5.2125960    -0.0491170    -0.4644460
  O                 -3.0629410    -2.0442960     0.8512630
  O                 -1.7123770     2.5882940     0.2314480
  H                  2.9425560     1.8959600    -1.0821180
  H                  0.7067560     2.7699810    -0.4684470
  H                 -0.8101430    -2.4600130     0.2293830
  H                  1.4909330    -2.1558700    -0.5004420
  H                  5.4914020     0.8142880    -1.0760090
  H                  4.8544660     0.2897710     0.5124480
  H                  6.0830610    -0.6978050    -0.3277450
--
0 1
  O                  3.2215948     1.0123726     2.4842976
  H                  2.5893298     0.3433176     2.7482296
  H                  2.7599208     1.8494306     2.4266236
}
memory 16GB
set_num_threads(8)
psi4_io.set_default_path("/scratch/Psi4-ligand")
set maxiter 500
set freeze_core True
set PROPERTIES_ORIGIN ["COM"]
e_dim= energy('wb97x-d/aug-cc-pVDZ',bsse_type='cp')

psi4.print_out('CP Energy = %10.6f' % (e_dim))
clean()
--------------------------------------------------------------------------

    Molecular point group: c1
  Charge       = 0
  Multiplicity = 1
  Basis Set: AUG-CC-PVDZ
    Blend: AUG-CC-PVDZ
  Basis Set: (AUG-CC-PVDZ AUX)
    Blend: AUG-CC-PVDZ-JKFIT
  @DF-RKS Final Energy:   -76.41950391790930
    Total Energy =                        -76.4195039179092817
    Molecular point group: c1
  Basis Set: AUG-CC-PVDZ
    Blend: AUG-CC-PVDZ
  Basis Set: (AUG-CC-PVDZ AUX)
    Blend: AUG-CC-PVDZ-JKFIT
  @DF-RKS Final Energy:   -76.41981480679664
    Total Energy =                        -76.4198148067966230
  Basis Set: AUG-CC-PVDZ
    Blend: AUG-CC-PVDZ
  Basis Set: (AUG-CC-PVDZ AUX)
    Blend: AUG-CC-PVDZ-JKFIT
  @DF-RKS Final Energy: -1188.20807899403258
    Total Energy =                      -1188.2080789940325758
  Multiplicity = 1
  Basis Set: AUG-CC-PVDZ
    Blend: AUG-CC-PVDZ
  Basis Set: (AUG-CC-PVDZ AUX)
    Blend: AUG-CC-PVDZ-JKFIT
  @DF-RKS Final Energy: -1188.20775747628886
    Total Energy =                      -1188.2077574762888617
    Molecular point group: c1

    Geometry (in Angstrom), charge = 0, multiplicity = 1:

       Center              X                  Y                   Z               Mass
    ------------   -----------------  -----------------  -----------------  -----------------
         N           -1.172633479982    -1.569039528874     0.122385167941    14.003074004430
         C           -2.461639479982    -1.262380528874     0.470423167941    12.000000000000
         C           -2.828366479982     0.258252471126     0.469963167941    12.000000000000
         F           -3.848291479982     0.436913471126    -0.437278832059    18.998403162730
         F           -3.306269479982     0.569359471126     1.723635167941    18.998403162730
         C           -1.686297479982     1.274993471126     0.119999167941    12.000000000000
         C           -0.356267479982     0.722535471126    -0.227146832059    12.000000000000
         C            0.705315520018     1.590935471126    -0.567721832059    12.000000000000
         C            1.967030520018     1.086351471126    -0.906305832059    12.000000000000
         C            2.196101520018    -0.315483528874    -0.928203832059    12.000000000000
         C            1.138672520018    -1.182214528874    -0.576002832059    12.000000000000
         C           -0.127068479982    -0.681326528874    -0.225557832059    12.000000000000
         S            3.719192520018    -1.087263528874    -1.407214832059    31.972071174400
         C            5.022220520018    -0.154228528874    -0.561123832059    12.000000000000
         O           -3.253316479982    -2.149407528874     0.754585167941    15.994914619570
         O           -1.902752479982     2.483182471126     0.134770167941    15.994914619570
         H            2.752180520018     1.790848471126    -1.178795832059     1.007825032230
         H            0.516380520018     2.664869471126    -0.565124832059     1.007825032230
         H           -1.000518479982    -2.565124528874     0.132705167941     1.007825032230
         H            1.300557520018    -2.260981528874    -0.597119832059     1.007825032230
         H            5.301026520018     0.709176471126    -1.172686832059     1.007825032230
         H            4.664090520018     0.184659471126     0.415770167941     1.007825032230
         H            5.892685520018    -0.802916528874    -0.424422832059     1.007825032230
         O            3.031219320018     0.907261071126     2.387619767941    15.994914619570
         H            2.398954320018     0.238206071126     2.651551767941     1.007825032230
         H            2.569545320018     1.744319071126     2.329945767941     1.007825032230

  Charge       = 0
  Multiplicity = 1
  Basis Set: AUG-CC-PVDZ
    Blend: AUG-CC-PVDZ
  Basis Set: (AUG-CC-PVDZ AUX)
    Blend: AUG-CC-PVDZ-JKFIT

    Orbital Energies [Eh]
    ---------------------

    Doubly Occupied:

       1A    -89.074277     2A    -24.873552     3A    -24.873146
       4A    -19.299427     5A    -19.292988     6A    -19.286687
       7A    -14.535957     8A    -10.507932     9A    -10.454292
      10A    -10.432844    11A    -10.406592    12A    -10.381946
      13A    -10.351489    14A    -10.350654    15A    -10.347294
      16A    -10.341252    17A    -10.340893    18A     -8.091641
      19A     -6.041423    20A     -6.037057    21A     -6.030852
      22A     -1.384569    23A     -1.328725    24A     -1.190361
      25A     -1.177780    26A     -1.135460    27A     -1.093178
      28A     -0.998669    29A     -0.936254    30A     -0.902115
      31A     -0.885942    32A     -0.865465    33A     -0.791942
      34A     -0.763707    35A     -0.750880    36A     -0.739901
      37A     -0.694107    38A     -0.678281    39A     -0.668645
      40A     -0.647856    41A     -0.642944    42A     -0.627266
      43A     -0.588966    44A     -0.578648    45A     -0.566791
      46A     -0.562831    47A     -0.555473    48A     -0.553255
      49A     -0.551109    50A     -0.535808    51A     -0.534069
      52A     -0.521120    53A     -0.517834    54A     -0.508982
      55A     -0.498194    56A     -0.495339    57A     -0.491646
      58A     -0.478651    59A     -0.473723    60A     -0.439371
      61A     -0.426532    62A     -0.415200    63A     -0.396464
      64A     -0.382845    65A     -0.369379    66A     -0.340768
      67A     -0.319599

  @DF-RKS Final Energy: -1264.63233943713522

   => Energetics <=

    Nuclear Repulsion Energy =           1320.9528003031657590
    One-Electron Energy =               -4360.9111972482824058
    Two-Electron Energy =                1871.3607988156168176
    DFT Exchange-Correlation Energy =     -96.0188862366964599
    Empirical Dispersion Energy =          -0.0158550709385660
    VV10 Nonlocal Energy =                  0.0000000000000000
    Total Energy =                      -1264.6323394371352151

  Dipole Moment: [D]
     X:     6.0865      Y:    -0.6036      Z:    -0.4487     Total:     6.1328

*** Psi4 exiting successfully. Buy a developer a beer!
